1
Lattice="0.0 1.795 1.795 1.795 0.0 1.795 1.795 1.795 0.0" Properties=species:S:1:pos:R:3:forces:R:3:stresses:R:6:energies:R:1 energy=-3.240243514015798 stress="-0.05302314210766739 -8.35235644360773e-18 -8.735642564502408e-18 -8.35235644360773e-18 -0.05302314210766738 -1.912449396327525e-18 -8.735642564502408e-18 -1.912449396327525e-18 -0.05302314210766739" free_energy=-3.240243514015798 pbc="T T T"
Cu       0.00000000       0.00000000       0.00000000       0.00000000      -0.00000000      -0.00000000      -0.05302314      -0.05302314      -0.05302314      -0.00000000      -0.00000000      -0.00000000      -3.24024351
