1
Lattice="0.0 1.8 1.8 1.8 0.0 1.8 1.8 1.8 0.0" Properties=species:S:1:pos:R:3:forces:R:3:stresses:R:6:energies:R:1 energy=-3.24430637281429 stress="-0.03107484698493147 -6.339385130616548e-18 -2.201123752096772e-17 -6.339385130616548e-18 -0.031074846984931515 -1.189796622755012e-18 -2.201123752096772e-17 -1.189796622755012e-18 -0.031074846984931417" free_energy=-3.24430637281429 pbc="T T T"
Cu       0.00000000       0.00000000       0.00000000      -0.00000000      -0.00000000       0.00000000      -0.03107485      -0.03107485      -0.03107485      -0.00000000      -0.00000000      -0.00000000      -3.24430637
