64
Lattice="0.0 10.6 10.6 10.6 0.0 10.6 10.6 10.6 0.0" Properties=species:S:1:pos:R:3:forces:R:3:stresses:R:6:energies:R:1 energy=-3.87851619082276 stress="-0.0018580159703990183 -6.748741572428179e-07 -9.878197737767947e-08 -6.748741572428179e-07 -0.0018577467888198438 2.0555502773083132e-08 -9.878197737767947e-08 2.0555502773083132e-08 -0.0018574879139363358" free_energy=-3.87851619082276 pbc="T T T"
Ar       0.00088279      -0.00190763       0.01233956       0.00084655      -0.00274448      -0.00390398      -0.00002782      -0.00002923      -0.00002862       0.00000112       0.00000045      -0.00000014      -0.06073075
Ar       2.64979457       2.63968791       0.00508631      -0.00057628       0.00456014      -0.00258414      -0.00003005      -0.00002823      -0.00002992      -0.00000038      -0.00000084       0.00000040      -0.06047954
Ar       5.30299029       5.30819582       0.01184812      -0.00321070      -0.00372578      -0.00651787      -0.00002822      -0.00002954      -0.00002961       0.00000133      -0.00000089      -0.00000070      -0.06052974
Ar       7.94706579       7.93948695      -0.00516858       0.00302480       0.00389305       0.00002277      -0.00002925      -0.00002833      -0.00002838       0.00000091      -0.00000070      -0.00000072      -0.06066683
Ar       2.66327691      -0.00128243       2.65747553      -0.00611439       0.00165092       0.00009890      -0.00002957      -0.00002914      -0.00003060       0.00000048       0.00000023      -0.00000002      -0.06041953
Ar       5.29908804       2.65787675       2.63175151       0.00166459      -0.00350543       0.00536105      -0.00002984      -0.00002929      -0.00002972       0.00000027      -0.00000085      -0.00000034      -0.06043401
Ar       7.95054152       5.30329916       2.64411328       0.00313408      -0.00213013       0.00303973      -0.00002936      -0.00002951      -0.00002822       0.00000066      -0.00000099       0.00000043      -0.06056970
Ar      10.60294443       7.94745424       2.64663295      -0.00073017      -0.00012135       0.00057119      -0.00002843      -0.00002900      -0.00002882       0.00000052       0.00000041       0.00000029      -0.06070389
Ar       5.30471413      -0.00524394       5.29496950      -0.00098037       0.00199280       0.00306285      -0.00003099      -0.00002914      -0.00002934      -0.00000135      -0.00000021      -0.00000069      -0.06038805
Ar       7.94514136       2.63511032       5.28456165       0.00262802       0.00533501       0.00446737      -0.00002816      -0.00002942      -0.00002876      -0.00000061       0.00000129       0.00000034      -0.06063587
Ar      10.60502751       5.30132541       5.30277357      -0.00250608      -0.00401185       0.00082298      -0.00002773      -0.00002746      -0.00002889      -0.00000145       0.00000061       0.00000014      -0.06088611
Ar      13.26460974       7.94174463       5.29168395      -0.00383498       0.00117963       0.00296933      -0.00003013      -0.00003096      -0.00003027      -0.00000026       0.00000104       0.00000037      -0.06020397
Ar       7.95323952       0.00117230       7.94565172      -0.00109353      -0.00247100       0.00338880      -0.00002824      -0.00002853      -0.00002743       0.00000025      -0.00000018      -0.00000048      -0.06086416
Ar      10.60760486       2.63293904       7.95931105      -0.00035156       0.00481865      -0.00575760      -0.00002774      -0.00002863      -0.00002762      -0.00000058       0.00000026       0.00000009      -0.06088178
Ar      13.26043396       5.29835760       7.94378170      -0.00381978       0.00038620       0.00544159      -0.00002840      -0.00002717      -0.00002767       0.00000039       0.00000044       0.00000014      -0.06097103
Ar      15.90905308       7.94304017       7.95375014      -0.00151643       0.00186880      -0.00163357      -0.00002901      -0.00002904      -0.00002869      -0.00000003      -0.00000107       0.00000013      -0.06062101
Ar      -0.00403377       2.65847783       2.64310409       0.00269747      -0.00463533       0.00462216      -0.00002939      -0.00002891      -0.00002855      -0.00000102       0.00000054      -0.00000097      -0.06063017
Ar       2.64345085       5.29001611       2.65406383       0.00090596       0.00295389      -0.00235371      -0.00002920      -0.00002969      -0.00002846      -0.00000053       0.00000075       0.00000007      -0.06057802
Ar       5.30566010       7.93888789       2.65910617      -0.00228936       0.00364398       0.00029794      -0.00002842      -0.00002894      -0.00002946      -0.00000042      -0.00000011       0.00000074      -0.06062141
Ar       7.95196140      10.60392899       2.64555630      -0.00015011      -0.00277187       0.00039862      -0.00002894      -0.00002830      -0.00002895       0.00000014       0.00000107       0.00000018      -0.06067092
Ar       2.65876793       2.64878513       5.30456884      -0.00267185      -0.00129105      -0.00127773      -0.00002794      -0.00002880      -0.00002824       0.00000028       0.00000034      -0.00000043      -0.06082250
Ar       5.30078823       5.28915257       5.30567774       0.00162495       0.00231946      -0.00247616      -0.00002900      -0.00002900      -0.00002922       0.00000073      -0.00000017      -0.00000006      -0.06059305
Ar       7.95389289       7.95392957       5.30170518      -0.00197246      -0.00454050      -0.00257196      -0.00002999      -0.00002905      -0.00002983      -0.00000117      -0.00000119       0.00000017      -0.06040907
Ar      10.60661563      10.58597171       5.30318340      -0.00071214       0.00589587      -0.00473057      -0.00002844      -0.00002871      -0.00002904      -0.00000003      -0.00000040      -0.00000059      -0.06069460
Ar       5.30483002       2.64650231       7.95297463      -0.00265650      -0.00241106       0.00166445      -0.00002884      -0.00002832      -0.00002814       0.00000056      -0.00000070      -0.00000014      -0.06075136
Ar       7.94627077       5.28520880       7.94687286       0.00262496       0.00267569      -0.00213284      -0.00002927      -0.00002805      -0.00002910       0.00000081      -0.00000070      -0.00000078      -0.06066379
Ar      10.59572423       7.95042191       7.93495671       0.00324848      -0.00367201       0.00618324      -0.00002850      -0.00002988      -0.00002943       0.00000057      -0.00000052       0.00000003      -0.06049989
Ar      13.25028502      10.58313651       7.94363672       0.00269831       0.00368934       0.00182535      -0.00002901      -0.00002854      -0.00002882       0.00000075      -0.00000064       0.00000027      -0.06064066
Ar       7.95396037       2.65458033      10.59859793      -0.00349896      -0.00285508       0.00038372      -0.00002919      -0.00002859      -0.00003024       0.00000090      -0.00000023      -0.00000013      -0.06047509
Ar      10.59211240       5.29922882      10.59114357       0.00557347       0.00158001      -0.00084120      -0.00002824      -0.00002889      -0.00002855      -0.00000006      -0.00000025      -0.00000019      -0.06073267
Ar      13.24797941       7.96084321      10.60942784      -0.00052172      -0.00731886      -0.00271206      -0.00002878      -0.00002911      -0.00002730       0.00000043       0.00000083       0.00000008      -0.06073990
Ar      15.88862810      10.59096031      10.60951198       0.00439707       0.00288959      -0.00313283      -0.00002777      -0.00002823      -0.00002804      -0.00000058      -0.00000036      -0.00000075      -0.06085658
Ar      -0.00294374       5.29818155       5.30224919       0.00209611      -0.00205033       0.00044636      -0.00002997      -0.00002936      -0.00002976      -0.00000046       0.00000063      -0.00000052      -0.06041722
Ar       2.64645664       7.93831968       5.29635808       0.00320345       0.00334177       0.00044921      -0.00002831      -0.00002878      -0.00002942       0.00000033       0.00000060       0.00000045      -0.06068035
Ar       5.31217789      10.60423262       5.30001883      -0.00362180      -0.00416716      -0.00221994      -0.00003006      -0.00002923      -0.00002963      -0.00000059      -0.00000030       0.00000104      -0.06043127
Ar       7.95105024      13.24651250       5.29538047       0.00119142      -0.00130748       0.00111763      -0.00002829      -0.00002945      -0.00002863      -0.00000132       0.00000018      -0.00000126      -0.06069174
Ar       2.65686762       5.30700442       7.95254934      -0.00081313      -0.00326174      -0.00147732      -0.00002982      -0.00002956      -0.00003015       0.00000056       0.00000079       0.00000018      -0.06036275
Ar       5.30285307       7.94788822       7.95208358      -0.00093052      -0.00045929      -0.00343618      -0.00002994      -0.00003053      -0.00002920       0.00000028       0.00000010      -0.00000111      -0.06039094
Ar       7.94434790      10.58244374       7.94696816       0.00223260       0.00740476       0.00303541      -0.00002887      -0.00002973      -0.00002903      -0.00000054      -0.00000076       0.00000014      -0.06053842
Ar      10.60911988      13.23940554       7.94806622      -0.00288722       0.00020491      -0.00135566      -0.00002803      -0.00002775      -0.00002922      -0.00000032      -0.00000018       0.00000085      -0.06077453
Ar       5.30148023       5.31375360      10.59935008      -0.00017211      -0.00535809       0.00226724      -0.00002903      -0.00002942      -0.00002875       0.00000064      -0.00000033       0.00000020      -0.06062430
Ar       7.95013460       7.94674478      10.59608957       0.00005865       0.00143402       0.00124226      -0.00002919      -0.00002929      -0.00002876       0.00000099      -0.00000093      -0.00000049      -0.06062806
Ar      10.60386955      10.59465793      10.60388018      -0.00222653       0.00158971      -0.00114341      -0.00002845      -0.00002894      -0.00002764       0.00000080       0.00000007       0.00000058      -0.06078062
Ar      13.24265517      13.25665130      10.59671322       0.00377555      -0.00365139       0.00060048      -0.00002891      -0.00002782      -0.00002808       0.00000028      -0.00000070       0.00000079      -0.06081158
Ar       7.95641107       5.30439827      13.25193168      -0.00404105      -0.00165354      -0.00096455      -0.00002942      -0.00003000      -0.00002936      -0.00000043      -0.00000019       0.00000000      -0.06048478
Ar      10.59754426       7.94428054      13.24707742       0.00159486       0.00094788       0.00054262      -0.00003021      -0.00002936      -0.00002980       0.00000037       0.00000058      -0.00000031      -0.06038554
Ar      13.24888368      10.60086140      13.26030369       0.00068463      -0.00057554      -0.00125261      -0.00002858      -0.00002853      -0.00002979      -0.00000142       0.00000071      -0.00000035      -0.06060412
Ar      15.90132687      13.25054988      13.24157297       0.00047540       0.00157861      -0.00026507      -0.00002894      -0.00002844      -0.00002900      -0.00000039       0.00000068       0.00000031      -0.06068094
Ar       0.00566908       7.94292383       7.94782890      -0.00242884       0.00323803       0.00161299      -0.00002788      -0.00002867      -0.00002881       0.00000087       0.00000058       0.00000075      -0.06078035
Ar       2.65884679      10.59632518       7.94502315      -0.00363204      -0.00270231       0.00032738      -0.00002989      -0.00002948      -0.00002842       0.00000007      -0.00000119       0.00000003      -0.06056017
Ar       5.29188414      13.24030037       7.94815545       0.00425119       0.00252796       0.00361196      -0.00002981      -0.00002914      -0.00002867       0.00000027      -0.00000082      -0.00000069      -0.06055929
Ar       7.94605175      15.88630128       7.93439507       0.00090512       0.00176798       0.00471936      -0.00002851      -0.00002858      -0.00002917      -0.00000040      -0.00000021       0.00000040      -0.06066980
Ar       2.65657341       7.94909404      10.60655487      -0.00372643       0.00006188      -0.00114037      -0.00003046      -0.00003005      -0.00002891      -0.00000051       0.00000026      -0.00000053      -0.06041910
Ar       5.28319126      10.59084893      10.60230460       0.00845760       0.00177155      -0.00027722      -0.00002964      -0.00002988      -0.00002963      -0.00000029       0.00000038      -0.00000005      -0.06042585
Ar       7.95045723      13.24590388      10.59334571       0.00013716      -0.00160938       0.00022101      -0.00002752      -0.00002662      -0.00002766      -0.00000001       0.00000063       0.00000047      -0.06111553
Ar      10.60551529      15.89824202      10.58588909      -0.00324521      -0.00007933       0.00328843      -0.00002896      -0.00002925      -0.00002849       0.00000024       0.00000056       0.00000091      -0.06062321
Ar       5.29809406       7.95108954      13.25780286       0.00254674      -0.00333688      -0.00331322      -0.00003042      -0.00003008      -0.00003107      -0.00000053       0.00000003       0.00000052      -0.06021657
Ar       7.94917794      10.59266295      13.25713312       0.00002539       0.00164338      -0.00660938      -0.00002833      -0.00002948      -0.00002954      -0.00000057       0.00000082      -0.00000030      -0.06059541
Ar      10.59852152      13.25232381      13.25520737      -0.00015701      -0.00126529      -0.00218672      -0.00002902      -0.00002837      -0.00002813      -0.00000032       0.00000096      -0.00000023      -0.06072514
Ar      13.24221369      15.89524768      13.25470925       0.00292885       0.00039156      -0.00311915      -0.00002898      -0.00003000      -0.00002971      -0.00000037       0.00000011       0.00000003      -0.06047206
Ar       7.95305171       7.94714264      15.89144778      -0.00064149      -0.00034432       0.00465385      -0.00002934      -0.00003004      -0.00002994       0.00000024       0.00000007       0.00000049      -0.06043495
Ar      10.60185207      10.59462209      15.90194004       0.00121165       0.00073151      -0.00043986      -0.00002945      -0.00002852      -0.00002951      -0.00000001       0.00000043       0.00000041      -0.06055432
Ar      13.26690475      13.24559392      15.89537925      -0.00681345       0.00035140       0.00158892      -0.00002911      -0.00003001      -0.00003005      -0.00000021      -0.00000081      -0.00000026      -0.06038400
Ar      15.89614980      15.89556571      15.90060278       0.00369908      -0.00029209      -0.00252027      -0.00003080      -0.00002978      -0.00002966       0.00000015      -0.00000012       0.00000015      -0.06032764
