1
Lattice="-0.0067788750063581295 1.8077000016955012 1.8077254228342599 1.8077000016955012 -0.0067788750063581295 1.8077254228342599 1.800921126689143 1.800921126689143 0.0" Properties=species:S:1:pos:R:3:forces:R:3:stresses:R:6:energies:R:1 B=2.30263210763766 v0=11.814329278309136 scale=1.0042777787197228 energy=-3.2459932397723428 stress="-0.0005002034059354785 -0.013759956618650456 -8.516265226446661e-18 -0.013759956618650456 -0.0005002034059354787 -1.3068062157823325e-17 -8.516265226446661e-18 -1.3068062157823325e-17 1.5957576951355306e-05" free_energy=-3.2459932397723428 strain=mono_vol_cons delta=-0.0075 pbc="T T T"
Cu       0.00000000       0.00000000       0.00000000       0.00000000       0.00000000      -0.00000000      -0.00050020      -0.00050020       0.00001596      -0.00000000      -0.00000000      -0.01375996      -3.24599324
