1
Lattice="-0.004519250004238753 1.8077000016955012 1.8077112998911256 1.8077000016955012 -0.004519250004238753 1.8077112998911256 1.8031807516912624 1.8031807516912624 0.0" Properties=species:S:1:pos:R:3:forces:R:3:stresses:R:6:energies:R:1 B=2.30263210763766 v0=11.814329278309136 scale=1.0042777787197228 energy=-3.2463318869840263 stress="-0.0002583592141562099 -0.009169674780393355 -6.460614999373329e-18 -0.009169674780393355 -0.0002583592141562809 -5.432789885836663e-18 -6.460614999373329e-18 -5.432789885836663e-18 -2.8988620916121766e-05" free_energy=-3.2463318869840263 strain=mono_vol_cons delta=-0.005 pbc="T T T"
Cu       0.00000000       0.00000000       0.00000000       0.00000000       0.00000000      -0.00000000      -0.00025836      -0.00025836      -0.00002899      -0.00000000      -0.00000000      -0.00916967      -3.24633189
