1
Lattice="-0.009038500008477507 1.8077000016955012 1.807745195325384 1.8077000016955012 -0.009038500008477507 1.807745195325384 1.7986615016870235 1.7986615016870235 0.0" Properties=species:S:1:pos:R:3:forces:R:3:stresses:R:6:energies:R:1 B=2.30263210763766 v0=11.814329278309136 scale=1.0042777787197228 energy=-3.2455188595901614 stress="-0.0008389358218440075 -0.01835677417332727 1.615153749843333e-18 -0.01835677417332727 -0.0008389358218440376 -1.4683215907666663e-17 1.615153749843333e-18 -1.4683215907666663e-17 7.887575145966199e-05" free_energy=-3.2455188595901614 strain=mono_vol_cons delta=-0.01 pbc="T T T"
Cu       0.00000000       0.00000000       0.00000000      -0.00000000       0.00000000       0.00000000      -0.00083894      -0.00083894       0.00007888      -0.00000000       0.00000000      -0.01835677      -3.24551886
