1
Lattice="0.0 1.7896230016785462 1.8078807897744784 1.8257770017124562 0.0 1.8078807897744784 1.8257770017124562 1.7896230016785462 0.0" Properties=species:S:1:pos:R:3:forces:R:3:stresses:R:6:energies:R:1 B=2.30263210763766 v0=11.814329278309136 scale=1.0042777787197228 energy=-3.244948386501187 stress="0.013805927890441463 -7.983998649793748e-18 4.698629090453332e-18 -7.983998649793748e-18 -0.01420794930240948 -9.397258180906665e-18 4.698629090453332e-18 -9.397258180906665e-18 -0.0017239257398783754" free_energy=-3.244948386501187 strain=mono_vol_cons delta=0.01 pbc="T T T"
Cu       0.00000000       0.00000000       0.00000000      -0.00000000      -0.00000000       0.00000000       0.01380593      -0.01420795      -0.00172393      -0.00000000       0.00000000      -0.00000000      -3.24494839
