1
Lattice="0.0 1.794142251682785 1.807801690540594 1.8212577517082176 0.0 1.807801690540594 1.8212577517082176 1.794142251682785 0.0" Properties=species:S:1:pos:R:3:forces:R:3:stresses:R:6:energies:R:1 B=2.30263210763766 v0=11.814329278309136 scale=1.0042777787197228 energy=-3.245671870241865 stress="0.010365256655749866 -8.791575524715407e-18 -4.992293408606662e-18 -8.791575524715407e-18 -0.010648395299691334 2.3493145452266642e-18 -4.992293408606662e-18 2.3493145452266642e-18 -0.000998275649241235" free_energy=-3.245671870241865 strain=mono_vol_cons delta=0.0075 pbc="T T T"
Cu       0.00000000       0.00000000       0.00000000      -0.00000000      -0.00000000      -0.00000000       0.01036526      -0.01064840      -0.00099828       0.00000000      -0.00000000      -0.00000000      -3.24567187
