1
Lattice="0.0 1.8077000016955012 1.8077000016955012 1.8077000016955012 0.0 1.8077000016955012 1.8077000016955012 1.8077000016955012 0.0" Properties=species:S:1:pos:R:3:forces:R:3:stresses:R:6:energies:R:1 B=2.30263210763766 v0=11.814329278309136 scale=1.0042777787197228 energy=-3.246602687316125 stress="-6.494836621034268e-05 7.653626291871246e-18 2.6429788633799986e-18 7.653626291871246e-18 -6.494836621051087e-05 3.523971817839998e-18 2.6429788633799986e-18 3.523971817839998e-18 -6.49483662103571e-05" free_energy=-3.246602687316125 strain=mono_vol_cons delta=0.0 pbc="T T T"
Cu       0.00000000       0.00000000       0.00000000       0.00000000       0.00000000      -0.00000000      -0.00006495      -0.00006495      -0.00006495       0.00000000       0.00000000       0.00000000      -3.24660269
