1
Lattice="0.009038500008477507 1.8077000016955012 1.807745195325384 1.8077000016955012 0.009038500008477507 1.807745195325384 1.8167385017039788 1.8167385017039788 0.0" Properties=species:S:1:pos:R:3:forces:R:3:stresses:R:6:energies:R:1 B=2.30263210763766 v0=11.814329278309136 scale=1.0042777787197228 energy=-3.2455188595901605 stress="-0.000838935821844054 0.018356774173327248 -1.8794516361813323e-17 0.018356774173327248 -0.0008389358218440348 -1.3949055112283326e-18 -1.8794516361813323e-17 -1.3949055112283326e-18 7.88757514596596e-05" free_energy=-3.2455188595901605 strain=mono_vol_cons delta=0.01 pbc="T T T"
Cu       0.00000000       0.00000000       0.00000000      -0.00000000       0.00000000       0.00000000      -0.00083894      -0.00083894       0.00007888      -0.00000000      -0.00000000       0.01835677      -3.24551886
