4
Lattice="3.6154000033909437 0.0 0.0 0.0 3.6154000033909437 0.0 0.0 0.0 3.6154000033909437" Properties=species:S:1:pos:R:3:forces:R:3:stresses:R:6:energies:R:1 B=2.3026321075821965 v0=47.25731711323428 scale=1.0042777787197066 energy=-12.986410749264504 stress="-6.494836632201026e-05 1.761985908920085e-18 -2.7898110224568008e-18 1.761985908920085e-18 -6.494836632202274e-05 -2.3493145452267798e-18 -2.7898110224568008e-18 -2.3493145452267798e-18 -6.494836632202553e-05" free_energy=-12.986410749264504 pbc="T T T"
Cu       0.00000000       0.00000000       0.00000000       0.00000000       0.00000000       0.00000000      -0.00001624      -0.00001624      -0.00001624      -0.00000000       0.00000000       0.00000000      -3.24660269
Cu       0.00000000       1.80770000       1.80770000      -0.00000000      -0.00000000      -0.00000000      -0.00001624      -0.00001624      -0.00001624      -0.00000000       0.00000000      -0.00000000      -3.24660269
Cu       1.80770000       0.00000000       1.80770000      -0.00000000       0.00000000       0.00000000      -0.00001624      -0.00001624      -0.00001624       0.00000000      -0.00000000       0.00000000      -3.24660269
Cu       1.80770000       1.80770000       0.00000000      -0.00000000      -0.00000000       0.00000000      -0.00001624      -0.00001624      -0.00001624       0.00000000      -0.00000000      -0.00000000      -3.24660269
