4
Lattice="3.579246003357034 0.0 0.0 0.0 3.6515540034248533 0.0 0.0 0.0 3.615761579548898" Properties=species:S:1:pos:R:3:forces:R:3:stresses:R:6:energies:R:1 B=2.3026321075821965 v0=47.25731711323428 scale=1.0042777787197066 energy=-12.979793546004744 stress="-0.014207949302525174 -2.4961467043034533e-18 1.761985908920085e-18 -2.4961467043034533e-18 0.013805927890333528 1.4683215907667374e-19 1.761985908920085e-18 1.4683215907667374e-19 -0.001723925739990917" free_energy=-12.979793546004744 strain=mono_vol_cons delta=-0.01 pbc="T T T"
Cu       0.00000000       0.00000000       0.00000000      -0.00000005      -0.00000005      -0.00000005      -0.00355199       0.00345148      -0.00043098      -0.00000000       0.00000000       0.00000000      -3.24494839
Cu       0.00000000       1.82577700       1.80788079      -0.00000005       0.00000005       0.00000005      -0.00355199       0.00345148      -0.00043098      -0.00000000      -0.00000000      -0.00000000      -3.24494839
Cu       1.78962300       0.00000000       1.80788079       0.00000005      -0.00000005       0.00000005      -0.00355199       0.00345148      -0.00043098       0.00000000       0.00000000      -0.00000000      -3.24494839
Cu       1.78962300       1.82577700       0.00000000       0.00000005       0.00000005      -0.00000005      -0.00355199       0.00345148      -0.00043098       0.00000000      -0.00000000       0.00000000      -3.24494839
