4
Lattice="3.5882845033655117 0.0 0.0 0.0 3.642515503416376 0.0 0.0 0.0 3.6156033810811294" Properties=species:S:1:pos:R:3:forces:R:3:stresses:R:6:energies:R:1 B=2.3026321075821965 v0=47.25731711323428 scale=1.0042777787197066 energy=-12.98268748096746 stress="-0.010648395299805937 -4.992293408606904e-18 -5.285957726760252e-18 -4.992293408606904e-18 0.010365256655641131 5.873286363066947e-19 -5.285957726760252e-18 5.873286363066947e-19 -0.0009982756493528892" free_energy=-12.98268748096746 strain=mono_vol_cons delta=-0.0075 pbc="T T T"
Cu       0.00000000       0.00000000       0.00000000      -0.00000005      -0.00000005      -0.00000005      -0.00266210       0.00259131      -0.00024957      -0.00000000      -0.00000000      -0.00000000      -3.24567187
Cu       0.00000000       1.82125775       1.80780169      -0.00000005       0.00000005       0.00000005      -0.00266210       0.00259131      -0.00024957      -0.00000000       0.00000000       0.00000000      -3.24567187
Cu       1.79414225       0.00000000       1.80780169       0.00000005      -0.00000005       0.00000005      -0.00266210       0.00259131      -0.00024957       0.00000000      -0.00000000       0.00000000      -3.24567187
Cu       1.79414225       1.82125775       0.00000000       0.00000005       0.00000005      -0.00000005      -0.00266210       0.00259131      -0.00024957       0.00000000       0.00000000      -0.00000000      -3.24567187
