4
Lattice="3.6154000033909437 -0.018077000016954718 0.0 -0.018077000016954718 3.6154000033909437 0.0 0.0 0.0 3.6154903906507094" Properties=species:S:1:pos:R:3:forces:R:3:stresses:R:6:energies:R:1 B=2.3026321075821965 v0=47.25731711323428 scale=1.0042777787197066 energy=-12.982075438360642 stress="-0.0008389358219559201 -0.018356774173332535 -5.873286363066951e-19 -0.018356774173332535 -0.0008389358219559189 6.60744715845032e-19 -5.873286363066951e-19 6.60744715845032e-19 7.887575134805224e-05" free_energy=-12.982075438360642 strain=mono_vol_cons delta=-0.01 pbc="T T T"
Cu       0.00000000       0.00000000       0.00000000      -0.00000005      -0.00000005      -0.00000005      -0.00020973      -0.00020973       0.00001972      -0.00000000      -0.00000000      -0.00458919      -3.24551886
Cu      -0.00903850       1.80770000       1.80774519      -0.00000005       0.00000005       0.00000005      -0.00020973      -0.00020973       0.00001972      -0.00000000       0.00000000      -0.00458919      -3.24551886
Cu       1.80770000      -0.00903850       1.80774519       0.00000005      -0.00000005       0.00000005      -0.00020973      -0.00020973       0.00001972       0.00000000      -0.00000000      -0.00458919      -3.24551886
Cu       1.79866150       1.79866150       0.00000000       0.00000005       0.00000005      -0.00000005      -0.00020973      -0.00020973       0.00001972       0.00000000       0.00000000      -0.00458919      -3.24551886
