4
Lattice="3.6154000033909437 -0.009038500008477359 0.0 -0.009038500008477359 3.6154000033909437 0.0 0.0 0.0 3.6154225997821925" Properties=species:S:1:pos:R:3:forces:R:3:stresses:R:6:energies:R:1 B=2.3026321075821965 v0=47.25731711323428 scale=1.0042777787197066 energy=-12.985327547936105 stress="-0.00025835921426855727 -0.009169674780395803 -1.7619859089200838e-18 -0.009169674780395803 -0.00025835921426856095 -3.01005926107181e-18 -1.7619859089200838e-18 -3.01005926107181e-18 -2.8988621028380462e-05" free_energy=-12.985327547936105 strain=mono_vol_cons delta=-0.005 pbc="T T T"
Cu       0.00000000       0.00000000       0.00000000      -0.00000005      -0.00000005      -0.00000005      -0.00006459      -0.00006459      -0.00000725       0.00000000       0.00000000      -0.00229242      -3.24633189
Cu      -0.00451925       1.80770000       1.80771130      -0.00000005       0.00000005       0.00000005      -0.00006459      -0.00006459      -0.00000725       0.00000000      -0.00000000      -0.00229242      -3.24633189
Cu       1.80770000      -0.00451925       1.80771130       0.00000005      -0.00000005       0.00000005      -0.00006459      -0.00006459      -0.00000725      -0.00000000       0.00000000      -0.00229242      -3.24633189
Cu       1.80318075       1.80318075       0.00000000       0.00000005       0.00000005      -0.00000005      -0.00006459      -0.00006459      -0.00000725      -0.00000000      -0.00000000      -0.00229242      -3.24633189
