4
Lattice="3.6154000033909437 0.0 0.0 0.0 3.6154000033909437 0.0 0.0 0.0 3.6154000033909437" Properties=species:S:1:pos:R:3:forces:R:3:stresses:R:6:energies:R:1 B=2.3026321075821965 v0=47.25731711323428 scale=1.0042777787197066 energy=-12.9864107492645 stress="-6.49483663225829e-05 3.230307499686822e-18 -5.8732863630669495e-19 3.230307499686822e-18 -6.494836632258804e-05 2.3493145452267798e-18 -5.8732863630669495e-19 2.3493145452267798e-18 -6.494836632258349e-05" free_energy=-12.9864107492645 strain=mono_vol_cons delta=0.0 pbc="T T T"
Cu       0.00000000       0.00000000       0.00000000      -0.00000005      -0.00000005      -0.00000005      -0.00001624      -0.00001624      -0.00001624       0.00000000      -0.00000000       0.00000000      -3.24660269
Cu       0.00000000       1.80770000       1.80770000      -0.00000005       0.00000005       0.00000005      -0.00001624      -0.00001624      -0.00001624      -0.00000000       0.00000000       0.00000000      -3.24660269
Cu       1.80770000       0.00000000       1.80770000       0.00000005      -0.00000005       0.00000005      -0.00001624      -0.00001624      -0.00001624       0.00000000      -0.00000000       0.00000000      -3.24660269
Cu       1.80770000       1.80770000       0.00000000       0.00000005       0.00000005      -0.00000005      -0.00001624      -0.00001624      -0.00001624       0.00000000      -0.00000000      -0.00000000      -3.24660269
