4
Lattice="3.633477003407898 0.0 0.0 0.0 3.597323003373989 0.0 0.0 0.0 3.6154903906507094" Properties=species:S:1:pos:R:3:forces:R:3:stresses:R:6:energies:R:1 B=2.3026321075821965 v0=47.25731711323428 scale=1.0042777787197066 energy=-12.98475561690231 stress="0.006906292992115451 2.9366431815334754e-18 1.1746572726133903e-18 2.9366431815334754e-18 -0.007104351793438827 -2.642978863380128e-18 1.1746572726133903e-18 -2.642978863380128e-18 -0.0004798088820062922" free_energy=-12.98475561690231 strain=mono_vol_cons delta=0.005 pbc="T T T"
Cu       0.00000000       0.00000000       0.00000000      -0.00000005      -0.00000005      -0.00000005       0.00172657      -0.00177609      -0.00011995      -0.00000000       0.00000000       0.00000000      -3.24618890
Cu       0.00000000       1.79866150       1.80774519      -0.00000005       0.00000005       0.00000005       0.00172657      -0.00177609      -0.00011995      -0.00000000      -0.00000000      -0.00000000      -3.24618890
Cu       1.81673850       0.00000000       1.80774519       0.00000005      -0.00000005       0.00000005       0.00172657      -0.00177609      -0.00011995       0.00000000       0.00000000      -0.00000000      -3.24618890
Cu       1.81673850       1.79866150       0.00000000       0.00000005       0.00000005      -0.00000005       0.00172657      -0.00177609      -0.00011995       0.00000000      -0.00000000       0.00000000      -3.24618890
