4
Lattice="3.6154000033909437 0.013557750012716039 0.0 0.013557750012716039 3.6154000033909437 0.0 0.0 0.0 3.615450845668461" Properties=species:S:1:pos:R:3:forces:R:3:stresses:R:6:energies:R:1 B=2.3026321075821965 v0=47.25731711323428 scale=1.0042777787197066 energy=-12.983972959089371 stress="-0.0005002034060473635 0.013759956618654283 1.4536383748590693e-17 0.013759956618654283 -0.0005002034060473694 1.2627565680593936e-17 1.4536383748590693e-17 1.2627565680593936e-17 1.5957576839594486e-05" free_energy=-12.983972959089371 strain=mono_vol_cons delta=0.0075 pbc="T T T"
Cu       0.00000000       0.00000000       0.00000000      -0.00000005      -0.00000005      -0.00000005      -0.00012505      -0.00012505       0.00000399       0.00000000       0.00000000       0.00343999      -3.24599324
Cu       0.00677888       1.80770000       1.80772542      -0.00000005       0.00000005       0.00000005      -0.00012505      -0.00012505       0.00000399       0.00000000      -0.00000000       0.00343999      -3.24599324
Cu       1.80770000       0.00677888       1.80772542       0.00000005      -0.00000005       0.00000005      -0.00012505      -0.00012505       0.00000399      -0.00000000       0.00000000       0.00343999      -3.24599324
Cu       1.81447888       1.81447888       0.00000000       0.00000005       0.00000005      -0.00000005      -0.00012505      -0.00012505       0.00000399       0.00000000       0.00000000       0.00343999      -3.24599324
