1
Lattice="2.47487 0.0 0.0 1.2374350000000003 2.143300291063994 0.0 1.2374350000000003 0.7144334303546647 2.020722893240601" Properties=species:S:1:pos:R:3:spacegroup_kinds:I:1:forces:R:3:stresses:R:6:energies:R:1 spacegroup="P 1" unit_cell=conventional occupancy="_JSON {\"0\": {\"Ar\": 1.0}}" energy=12.312509335307546 stress="-4.959658090089379 -3.579919018493678e-16 -1.1555434806530227e-16 -3.579919018493678e-16 -4.959658090089382 -9.365728462939836e-16 -1.1555434806530227e-16 -9.365728462939836e-16 -4.959658090089381" free_energy=12.312509335307546 pbc="T T T"
Ar       0.00000000       0.00000000       0.00000000        0      -0.00000000      -0.00000000       0.00000000      -4.95965809      -4.95965809      -4.95965809      -0.00000000      -0.00000000      -0.00000000      12.31250934
