1
Lattice="0.0 1.8077000016955977 1.8077000016955977 1.8077000016955977 0.0 1.8077000016955977 1.8077000016955977 1.8077000016955977 0.0" Properties=species:S:1:pos:R:3:forces:R:3:stresses:R:6:energies:R:1 B=2.302632107646574 v0=11.814329278311037 scale=1.0042777787197765 energy=-3.2466026873161256 stress="-6.494836584146201e-05 4.698629090452577e-18 2.642978863379575e-18 4.698629090452577e-18 -6.49483658414902e-05 -2.3493145452262887e-18 2.642978863379575e-18 -2.3493145452262887e-18 -6.494836584147847e-05" free_energy=-3.2466026873161256 pbc="T T T"
Cu       0.00000000       0.00000000       0.00000000       0.00000000      -0.00000000      -0.00000000      -0.00006495      -0.00006495      -0.00006495      -0.00000000       0.00000000       0.00000000      -3.24660269
