1
Lattice="-0.004519250004238994 1.8077000016955977 1.8077112998912221 1.8077000016955977 -0.004519250004238994 1.8077112998912221 1.8031807516913587 1.8031807516913587 0.0" Properties=species:S:1:pos:R:3:forces:R:3:stresses:R:6:energies:R:1 B=2.302632107646574 v0=11.814329278311037 scale=1.0042777787197765 energy=-3.2463318869840263 stress="-0.00025835921378758567 -0.009169674780384225 -1.879451636181031e-17 -0.009169674780384225 -0.0002583592137876185 -3.5239718178394334e-18 -1.879451636181031e-17 -3.5239718178394334e-18 -2.8988620547937242e-05" free_energy=-3.2463318869840263 strain=mono_vol_cons delta=-0.005 pbc="T T T"
Cu       0.00000000       0.00000000       0.00000000      -0.00000000      -0.00000000       0.00000000      -0.00025836      -0.00025836      -0.00002899      -0.00000000      -0.00000000      -0.00916967      -3.24633189
