1
Lattice="0.0 1.8257770017125536 1.807880789774575 1.7896230016786419 0.0 1.807880789774575 1.7896230016786419 1.8257770017125536 0.0" Properties=species:S:1:pos:R:3:forces:R:3:stresses:R:6:energies:R:1 B=2.302632107646574 v0=11.814329278311037 scale=1.0042777787197765 energy=-3.2449483865011883 stress="-0.014207949302027774 1.879451636181031e-17 -2.819177454271547e-17 1.879451636181031e-17 0.013805927890797935 -4.698629090452577e-18 -2.819177454271547e-17 -4.698629090452577e-18 -0.0017239257395084127" free_energy=-3.2449483865011883 strain=mono_vol_cons delta=-0.01 pbc="T T T"
Cu       0.00000000       0.00000000       0.00000000      -0.00000000      -0.00000000      -0.00000000      -0.01420795       0.01380593      -0.00172393      -0.00000000      -0.00000000       0.00000000      -3.24494839
