1
Lattice="-0.006778875006358491 1.8077000016955977 1.8077254228343564 1.8077000016955977 -0.006778875006358491 1.8077254228343564 1.8009211266892393 1.8009211266892393 0.0" Properties=species:S:1:pos:R:3:forces:R:3:stresses:R:6:energies:R:1 B=2.302632107646574 v0=11.814329278311037 scale=1.0042777787197765 energy=-3.2459932397723437 stress="-0.0005002034055661008 -0.013759956618636644 -6.974527556140544e-18 -0.013759956618636644 -0.0005002034055660891 3.670803976916076e-18 -6.974527556140544e-18 3.670803976916076e-18 1.5957577320317298e-05" free_energy=-3.2459932397723437 strain=mono_vol_cons delta=-0.0075 pbc="T T T"
Cu       0.00000000       0.00000000       0.00000000       0.00000000      -0.00000000      -0.00000000      -0.00050020      -0.00050020       0.00001596       0.00000000      -0.00000000      -0.01375996      -3.24599324
