1
Lattice="-0.009038500008477989 1.8077000016955977 1.8077451953254806 1.8077000016955977 -0.009038500008477989 1.8077451953254806 1.7986615016871197 1.7986615016871197 0.0" Properties=species:S:1:pos:R:3:forces:R:3:stresses:R:6:energies:R:1 B=2.302632107646574 v0=11.814329278311037 scale=1.0042777787197765 energy=-3.2455188595901614 stress="-0.0008389358214746633 -0.01835677417330933 6.240366760757329e-19 -0.01835677417330933 -0.000838935821474668 -9.397258180905155e-18 6.240366760757329e-19 -9.397258180905155e-18 7.887575182819803e-05" free_energy=-3.2455188595901614 strain=mono_vol_cons delta=-0.01 pbc="T T T"
Cu       0.00000000       0.00000000       0.00000000      -0.00000000       0.00000000       0.00000000      -0.00083894      -0.00083894       0.00007888      -0.00000000       0.00000000      -0.01835677      -3.24551886
