1
Lattice="0.0 1.7941422516828809 1.8078016905406906 1.8212577517083148 0.0 1.8078016905406906 1.8212577517083148 1.7941422516828809 0.0" Properties=species:S:1:pos:R:3:forces:R:3:stresses:R:6:energies:R:1 B=2.302632107646574 v0=11.814329278311037 scale=1.0042777787197765 energy=-3.2456718702418668 stress="0.010365256656109717 5.139125567682506e-19 -3.670803976916076e-18 5.139125567682506e-19 -0.010648395299312658 9.984586817211727e-18 -3.670803976916076e-18 9.984586817211727e-18 -0.000998275648871021" free_energy=-3.2456718702418668 strain=mono_vol_cons delta=0.0075 pbc="T T T"
Cu       0.00000000       0.00000000       0.00000000       0.00000000      -0.00000000      -0.00000000       0.01036526      -0.01064840      -0.00099828       0.00000000      -0.00000000       0.00000000      -3.24567187
