1
Lattice="0.0 1.7986615016871197 1.8077451953254806 1.8167385017040756 0.0 1.8077451953254806 1.8167385017040756 1.7986615016871197 0.0" Properties=species:S:1:pos:R:3:forces:R:3:stresses:R:6:energies:R:1 B=2.302632107646574 v0=11.814329278311037 scale=1.0042777787197765 energy=-3.246188904225578 stress="0.0069062929925875925 3.964468295069362e-18 -5.139125567682507e-18 3.964468295069362e-18 -0.007104351792950252 5.873286363065722e-19 -5.139125567682507e-18 5.873286363065722e-19 -0.0004798088815254985" free_energy=-3.246188904225578 strain=mono_vol_cons delta=0.005 pbc="T T T"
Cu       0.00000000       0.00000000       0.00000000      -0.00000000      -0.00000000       0.00000000       0.00690629      -0.00710435      -0.00047981       0.00000000      -0.00000000       0.00000000      -3.24618890
