1
Lattice="0.004519250004238994 1.8077000016955977 1.8077112998912221 1.8077000016955977 0.004519250004238994 1.8077112998912221 1.8122192516998368 1.8122192516998368 0.0" Properties=species:S:1:pos:R:3:forces:R:3:stresses:R:6:energies:R:1 B=2.302632107646574 v0=11.814329278311037 scale=1.0042777787197765 energy=-3.246331886984026 stress="-0.0002583592137876573 0.009169674780384189 9.397258180905155e-18 0.009169674780384189 -0.00025835921378763733 1.4683215907664305e-18 9.397258180905155e-18 1.4683215907664305e-18 -2.898862054794664e-05" free_energy=-3.246331886984026 strain=mono_vol_cons delta=0.005 pbc="T T T"
Cu       0.00000000       0.00000000       0.00000000      -0.00000000      -0.00000000       0.00000000      -0.00025836      -0.00025836      -0.00002899       0.00000000       0.00000000       0.00916967      -3.24633189
