1
Lattice="0.0 2.58875 2.58875 2.58875 0.0 2.58875 2.58875 2.58875 0.0" Properties=species:S:1:pos:R:3:forces:R:3:stresses:R:6:energies:R:1 energy=-0.053201752990899645 stress="-0.004250892646061392 1.253593350375051e-19 1.2691183158014984e-19 1.253593350375051e-19 -0.004250892646061393 -2.2140478015060673e-19 1.2691183158014984e-19 -2.2140478015060673e-19 -0.004250892646061394" free_energy=-0.053201752990899645 pbc="T T T"
Ar       0.00000000       0.00000000       0.00000000      -0.00000000      -0.00000000       0.00000000      -0.00425089      -0.00425089      -0.00425089      -0.00000000       0.00000000       0.00000000      -0.05320175
