1
Lattice="0.0 1.805 1.805 1.805 0.0 1.805 1.805 1.805 0.0" Properties=species:S:1:pos:R:3:forces:R:3:stresses:R:6:energies:R:1 energy=-3.2311751844084506 stress="-0.08310036432146806 -9.439491840955484e-18 -1.631630913915157e-17 -9.439491840955484e-18 -0.083100364321468 7.835515688293125e-18 -1.631630913915157e-17 7.835515688293125e-18 -0.08310036432146803" free_energy=-3.2311751844084506 pbc="T T T"
Cu       0.00000000       0.00000000       0.00000000      -0.00000000       0.00000000      -0.00000000      -0.08310036      -0.08310036      -0.08310036       0.00000000      -0.00000000      -0.00000000      -3.23117518
