4
Lattice="3.5539263495987936 0.0 0.0 0.0 3.6257228415098806 0.0 0.0 0.0 3.590183613915728" Properties=species:S:1:pos:R:3:forces:R:3:energies:R:1 B=0.8392121970544877 v0=46.261497441243726 scale=0.9971734987650936 energy=-0.02649727441889027 free_energy=-0.02649727441889027 strain=mono_vol_cons delta=-0.01 pbc="T T T"
Cu       0.00000000       0.00000000       0.00000000       0.00000002       0.00000002       0.00000002      -0.00662432
Cu       0.00000000       1.81286142       1.79509181       0.00000002      -0.00000002      -0.00000002      -0.00662432
Cu       1.77696318       0.00000000       1.79509181      -0.00000002       0.00000002      -0.00000002      -0.00662432
Cu       1.77696318       1.81286142       0.00000000      -0.00000002      -0.00000002       0.00000002      -0.00662432
