4
Lattice="3.589824595554337 -0.013461842233328764 0.0 -0.013461842233328764 3.589824595554337 0.0 0.0 0.0 3.589875078172624" Properties=species:S:1:pos:R:3:forces:R:3:energies:R:1 B=0.8392121970544877 v0=46.261497441243726 scale=0.9971734987650936 energy=-0.027415704115171025 free_energy=-0.027415704115171025 strain=mono_vol_cons delta=-0.0075 pbc="T T T"
Cu       0.00000000       0.00000000       0.00000000       0.00000002       0.00000002       0.00000002      -0.00685393
Cu      -0.00673092       1.79491230       1.79493754       0.00000002      -0.00000002      -0.00000002      -0.00685393
Cu       1.79491230      -0.00673092       1.79493754      -0.00000002       0.00000002      -0.00000002      -0.00685393
Cu       1.78818138       1.78818138       0.00000000      -0.00000002      -0.00000002       0.00000002      -0.00685393
