4
Lattice="3.6077737185321084 0.0 0.0 0.0 3.5718754725765653 0.0 0.0 0.0 3.589914343412922" Properties=species:S:1:pos:R:3:forces:R:3:energies:R:1 B=0.8392121970544877 v0=46.261497441243726 scale=0.9971734987650936 energy=-0.02773345063367927 free_energy=-0.02773345063367927 strain=mono_vol_cons delta=0.005 pbc="T T T"
Cu       0.00000000       0.00000000       0.00000000       0.00000002       0.00000002       0.00000002      -0.00693336
Cu       0.00000000       1.78593774       1.79495717       0.00000002      -0.00000002      -0.00000002      -0.00693336
Cu       1.80388686       0.00000000       1.79495717      -0.00000002       0.00000002      -0.00000002      -0.00693336
Cu       1.80388686       1.78593774       0.00000000      -0.00000002      -0.00000002       0.00000002      -0.00693336
