4
Lattice="3.589824595554337 0.017949122977771684 0.0 0.017949122977771684 3.589824595554337 0.0 0.0 0.0 3.589914343412922" Properties=species:S:1:pos:R:3:forces:R:3:energies:R:1 B=0.8392121970544877 v0=46.261497441243726 scale=0.9971734987650936 energy=-0.02684749081272031 free_energy=-0.02684749081272031 strain=mono_vol_cons delta=0.01 pbc="T T T"
Cu       0.00000000       0.00000000       0.00000000       0.00000002       0.00000002       0.00000002      -0.00671187
Cu       0.00897456       1.79491230       1.79495717       0.00000002      -0.00000002      -0.00000002      -0.00671187
Cu       1.79491230       0.00897456       1.79495717      -0.00000002       0.00000002      -0.00000002      -0.00671187
Cu       1.80388686       1.80388686       0.00000000      -0.00000002      -0.00000002       0.00000002      -0.00671187
