4
Lattice="3.6167482800209947 0.0 0.0 0.0 3.56290091108768 0.0 0.0 0.0 3.5900265345469053" Properties=species:S:1:pos:R:3:forces:R:3:energies:R:1 B=0.8392121970544877 v0=46.261497441243726 scale=0.9971734987650936 energy=-0.027218124115131914 free_energy=-0.027218124115131914 strain=mono_vol_cons delta=0.0075 pbc="T T T"
Cu       0.00000000       0.00000000       0.00000000       0.00000002       0.00000002       0.00000002      -0.00680453
Cu       0.00000000       1.78145046       1.79501327       0.00000002      -0.00000002      -0.00000002      -0.00680453
Cu       1.80837414       0.00000000       1.79501327      -0.00000002       0.00000002      -0.00000002      -0.00680453
Cu       1.80837414       1.78145046       0.00000000      -0.00000002      -0.00000002       0.00000002      -0.00680453
