1
Lattice="3.16532 0.0 0.0 -1.0550951747510509 2.9842963784813747 0.0 -1.0550951747510509 -1.4921238113058741 2.584490550640702" Properties=species:S:1:pos:R:3:spacegroup_kinds:I:1:forces:R:3:stresses:R:6:energies:R:1 spacegroup="P 1" unit_cell=conventional occupancy="_JSON {\"0\": {\"Cu\": 1.0}}" energy=-1.3026697363326254 stress="0.09593683659475187 -1.0705605425902572e-07 -1.854245056772891e-07 -1.0705605425902572e-07 0.09593676089561747 -2.6222877967848414e-07 -1.854245056772891e-07 -2.6222877967848414e-07 0.09593645810650026" free_energy=-1.3026697363326254 pbc="T T T"
Cu       0.00000000       0.00000000       0.00000000        0      -0.00000000       0.00000000       0.00000000       0.09593684       0.09593676       0.09593646      -0.00000026      -0.00000019      -0.00000011      -1.30266974
