1
Lattice="0.004487280744442843 1.7949122977771372 1.7949235160491126 1.7949122977771372 0.004487280744442843 1.7949235160491126 1.7993995785215802 1.7993995785215802 0.0" Properties=species:S:1:pos:R:3:forces:R:3:energies:R:1 B=0.8392121970516578 v0=11.565374360310324 scale=0.9971734987650762 energy=-0.0069553618660016525 free_energy=-0.0069553618660016525 strain=mono_vol_cons delta=0.005 pbc="T T T"
Cu       0.00000000       0.00000000       0.00000000       0.00000000       0.00000000       0.00000000      -0.00695536
