1
Lattice="0.0 1.7814504555438089 1.7950132672734214 1.8083741400104658 0.0 1.7950132672734214 1.8083741400104658 1.7814504555438089 0.0" Properties=species:S:1:pos:R:3:forces:R:3:energies:R:1 B=0.8392121970516578 v0=11.565374360310324 scale=0.9971734987650762 energy=-0.006804531028800298 free_energy=-0.006804531028800298 strain=mono_vol_cons delta=0.0075 pbc="T T T"
Cu       0.00000000       0.00000000       0.00000000       0.00000000       0.00000000       0.00000000      -0.00680453
