1
Lattice="0.0 1.7859377362882516 1.7949571717064297 1.8038868592660227 0.0 1.7949571717064297 1.8038868592660227 1.7859377362882516 0.0" Properties=species:S:1:pos:R:3:forces:R:3:energies:R:1 B=0.8392121970516578 v0=11.565374360310324 scale=0.9971734987650762 energy=-0.006933362658426034 free_energy=-0.006933362658426034 strain=mono_vol_cons delta=0.005 pbc="T T T"
Cu       0.00000000       0.00000000       0.00000000       0.00000000       0.00000000       0.00000000      -0.00693336
