1
Lattice="0.0 1.75 1.75 1.75 0.0 1.75 1.75 1.75 0.0" Properties=species:S:1:pos:R:3:forces:R:3:stresses:R:6:energies:R:1 energy=-3.0897580836999277 stress="-0.32974838947969026 -4.143106330962683e-17 -2.144381206455295e-18 -4.143106330962683e-17 -0.3297483894796903 -2.144381206455295e-18 -2.144381206455295e-18 -2.144381206455295e-18 -0.32974838947969015" free_energy=-3.0897580836999277 pbc="T T T"
Cu       0.00000000       0.00000000       0.00000000       0.00000000      -0.00000000      -0.00000000      -0.32974839      -0.32974839      -0.32974839      -0.00000000      -0.00000000      -0.00000000      -3.08975808
