1
Lattice="2.55266 0.0 0.0 1.2763300000000002 2.210668407224385 0.0 1.2763300000000002 0.7368894690747951 2.0842381622709687" Properties=species:S:1:pos:R:3:spacegroup_kinds:I:1:forces:R:3:stresses:R:6:energies:R:1 spacegroup="P 1" unit_cell=conventional occupancy="_JSON {\"0\": {\"Cu\": 1.0}}" energy=-3.246324190011026 stress="-0.010555091524348215 1.2632627835424165e-16 8.495497528551453e-17 1.2632627835424165e-16 -0.010555091524348392 1.463113463250528e-16 8.495497528551453e-17 1.463113463250528e-16 -0.010555091524348862" free_energy=-3.246324190011026 pbc="T T T"
Cu       0.00000000       0.00000000       0.00000000        0       0.00000000       0.00000000      -0.00000000      -0.01055509      -0.01055509      -0.01055509       0.00000000       0.00000000       0.00000000      -3.24632419
