1
Lattice="-1.8275 1.8275 1.8275 1.8275 -1.8275 1.8275 1.8275 1.8275 -1.8275" Properties=species:S:1:pos:R:3:forces:R:3:stresses:R:6:energies:R:1 energy=-1.3026825403319182 stress="0.09593790646183814 8.925180044265406e-19 -2.198399147854787e-18 8.925180044265406e-19 0.09593790646183811 -1.4167879139445662e-18 -2.198399147854787e-18 -1.4167879139445662e-18 0.09593790646183815" free_energy=-1.3026825403319182 pbc="T T T"
Cu       0.00000000       0.00000000       0.00000000       0.00000000       0.00000000       0.00000000       0.09593791       0.09593791       0.09593791      -0.00000000      -0.00000000       0.00000000      -1.30268254
