1
Lattice="0.0 2.63 2.63 2.63 0.0 2.63 2.63 2.63 0.0" Properties=species:S:1:pos:R:3:forces:R:3:stresses:R:6:energies:R:1 energy=-0.05881063236758873 stress="-0.002510573948622031 -1.6289862999998635e-19 2.0690183192133172e-19 -1.6289862999998635e-19 -0.0025105739486220306 -1.919815646594877e-19 2.0690183192133172e-19 -1.919815646594877e-19 -0.00251057394862203" free_energy=-0.05881063236758873 pbc="T T T"
Ar       0.00000000       0.00000000       0.00000000      -0.00000000       0.00000000      -0.00000000      -0.00251057      -0.00251057      -0.00251057      -0.00000000       0.00000000      -0.00000000      -0.05881063
