10
Lattice="2.5526554800834367 0.0 1.5630506815050656e-16 -1.5630506815050656e-16 2.5526554800834367 1.5630506815050656e-16 0.0 0.0 28.88" Properties=species:S:1:pos:R:3:bulk_wyckoff:S:1:bulk_equivalent:I:1:forces:R:3:energies:R:1 energy=0.8527348401680896 free_energy=0.8527348401680896 pbc="T T T"
Cu       0.00000000       0.00000000      26.08839348 a         0      -0.00000000      -0.00000000       0.00451354       0.02563496
Cu       1.27632774       1.27632774      27.86787652 a         0      -0.00000000       0.00000000      -0.00206870       0.42112502
Cu      -0.00000000      -0.00000000      22.52677994 a         0       0.00000000       0.00000000       0.00264582      -0.00689686
Cu       1.27632774       1.27632774      24.30861736 a         0      -0.00000000       0.00000000      -0.00494106      -0.00680276
Cu      -0.00000000      -0.00000000      18.96446190 a         0       0.00000000       0.00000000      -0.00061400      -0.00669294
Cu       1.27632774       1.27632774      20.74553810 a         0      -0.00000000      -0.00000000       0.00061400      -0.00669294
Cu      -0.00000000      -0.00000000      15.40138264 a         0      -0.00000000       0.00000000       0.00494106      -0.00680276
Cu       1.27632774       1.27632774      17.18322006 a         0      -0.00000000       0.00000000      -0.00264582      -0.00689686
Cu      -0.00000000      -0.00000000      11.84212348 a         0       0.00000000      -0.00000000       0.00206870       0.42112502
Cu       1.27632774       1.27632774      13.62160652 a         0      -0.00000000      -0.00000000      -0.00451354       0.02563496
