12
Lattice="2.5526554800834367 0.0 1.5630506815050656e-16 -2.2104874724609725e-16 3.61 2.2104874724609725e-16 0.0 0.0 25.526554800834365" Properties=species:S:1:pos:R:3:bulk_wyckoff:S:1:bulk_equivalent:I:1:forces:R:3:energies:R:1 energy=1.3275007240870238 free_energy=1.3275007240870238 pbc="T T T"
Cu      -0.00000000      -0.00000000       1.96640477 a         0       0.00000000      -0.00000000      -0.00574324       0.13856954
Cu      -0.00000000      -0.00000000       4.49600507 a         0       0.00000000       0.00000000       0.00210227      -0.00652630
Cu       1.27632774       1.80500000       0.73322829 a         0      -0.00000000      -0.00000000       0.00613300       0.53975609
Cu       1.27632774       1.80500000       3.23474252 a         0      -0.00000000      -0.00000000       0.00038578       0.00494742
Cu      -0.00000000      -0.00000000       7.02605865 a         0       0.00000000       0.00000000      -0.00531717      -0.00643228
Cu       0.00000000       0.00000000       9.55423902 a         0      -0.00000000      -0.00000000      -0.00058878      -0.00656411
Cu       1.27632774       1.80500000       5.76169386 a         0      -0.00000000      -0.00000000       0.00058878      -0.00656411
Cu       1.27632774       1.80500000       8.28987424 a         0      -0.00000000      -0.00000000       0.00531717      -0.00643228
Cu       0.00000000       0.00000000      12.08119036 a         0      -0.00000000      -0.00000000      -0.00038578       0.00494742
Cu       0.00000000       0.00000000      14.58270459 a         0      -0.00000000      -0.00000000      -0.00613300       0.53975609
Cu       1.27632774       1.80500000      10.81992781 a         0      -0.00000000       0.00000000      -0.00210227      -0.00652630
Cu       1.27632774       1.80500000      13.34952811 a         0       0.00000000       0.00000000       0.00574324       0.13856954
