9
Lattice="2.5526554800834367 0.0 1.5630506815050656e-16 -1.2763277400417177 2.210664492861819 1.5630506815050656e-16 0.0 0.0 31.263517076618236" Properties=species:S:1:pos:R:3:bulk_wyckoff:S:1:bulk_equivalent:I:1:forces:R:3:energies:R:1 energy=0.671653275352142 free_energy=0.671653275352142 pbc="T T T"
Cu      -0.00000000      -0.00000000       5.24897696 a         0       0.00000000      -0.00000000      -0.00273269      -0.00659458
Cu       0.00000000       1.47377633       1.12688323 a         0      -0.00000000      -0.00000000      -0.00001689       0.34848190
Cu       1.27632774       0.73688816       3.18350378 a         0       0.00000000      -0.00000000      -0.00051904       0.00353687
Cu       0.00000000      -0.00000000      11.44422750 a         0      -0.00000000       0.00000000      -0.00113172      -0.00639013
Cu       0.00000000       1.47377633       7.31388274 a         0      -0.00000000       0.00000000       0.00113172      -0.00639013
Cu       1.27632774       0.73688816       9.37905512 a         0       0.00000000      -0.00000000      -0.00000000      -0.00641485
Cu       0.00000000       0.00000000      17.63122702 a         0       0.00000000      -0.00000000       0.00001689       0.34848190
Cu       0.00000000       1.47377633      13.50913329 a         0       0.00000000       0.00000000       0.00273269      -0.00659458
Cu       1.27632774       0.73688816      15.57460646 a         0      -0.00000000       0.00000000       0.00051904       0.00353687
