4
Lattice="3.61 0.0 0.0 0.0 3.61 0.0 0.0 0.0 3.61" Properties=species:S:1:pos:R:3:forces:R:3:energies:R:1 energy=-0.022726045434183106 free_energy=-0.022726045434183106 pbc="T T T"
Cu       0.00000000       0.00000000       0.00000000       0.00000000       0.00000000       0.00000000      -0.00568151
Cu       0.00000000       1.80500000       1.80500000      -0.00000000      -0.00000000      -0.00000000      -0.00568151
Cu       1.80500000       0.00000000       1.80500000      -0.00000000       0.00000000      -0.00000000      -0.00568151
Cu       1.80500000       1.80500000       0.00000000      -0.00000000      -0.00000000      -0.00000000      -0.00568151
