1
Lattice="0.0 1.805 1.805 1.805 0.0 1.805 1.805 1.805 0.0" Properties=species:S:1:pos:R:3:forces:R:3:stresses:R:6:energies:R:1 energy=-3.24632353016239 stress="-0.01056775623093442 -1.0342880708546927e-17 -7.964571240806189e-18 -1.0342880708546927e-17 -0.010567756230934512 7.079618880716613e-18 -7.964571240806189e-18 7.079618880716613e-18 -0.010567756230934401" free_energy=-3.24632353016239 pbc="T T T"
Cu       0.02483571      -0.00691322       0.03238443       0.00000000       0.00000000      -0.00000000      -0.01056776      -0.01056776      -0.01056776       0.00000000      -0.00000000      -0.00000000      -3.24632353
