1
Lattice="0.0 1.7949122977771328 1.7949122977771328 1.7949122977771328 0.0 1.7949122977771328 1.7949122977771328 1.7949122977771328 0.0" Properties=species:S:1:pos:R:3:forces:R:3:energies:R:1 B=0.8392121970539517 v0=11.56537436031024 scale=0.9971734987650738 energy=-0.007036492048269949 free_energy=-0.007036492048269949 pbc="T T T"
Cu       0.00000000       0.00000000       0.00000000       0.00000000       0.00000000       0.00000000      -0.00703649
