1
Lattice="0.0 1.8083741400104614 1.795013267273417 1.7814504555438044 0.0 1.795013267273417 1.7814504555438044 1.8083741400104614 0.0" Properties=species:S:1:pos:R:3:forces:R:3:energies:R:1 B=0.8392121970539517 v0=11.56537436031024 scale=0.9971734987650738 energy=-0.006804531028778982 free_energy=-0.006804531028778982 strain=mono_vol_cons delta=-0.0075 pbc="T T T"
Cu       0.00000000       0.00000000       0.00000000       0.00000000       0.00000000       0.00000000      -0.00680453
