27
Lattice="6.218480397499389e-09 8.211267052306813 8.211267061050288 8.21126702749885 1.4281347710416471e-08 8.21126705298742 8.211267026059422 8.21126704280452 1.5720774607141877e-08" Properties=species:S:1:pos:R:3:forces:R:3:stresses:R:6:energies:R:1 energy=-1.7193794744482311 stress="-2.530449724651327e-08 -1.3245071912523736e-12 -2.586936842696021e-12 -1.3245071912523736e-12 -2.5307654923050925e-08 -7.337522542866553e-12 -2.586936842696021e-12 -7.337522542866553e-12 -2.5309574548260537e-08" free_energy=-1.7193794744482311 B=0.013029997204691154 v0=1107.2878223196487 scale=1.0000019709853754 pbc="T T T"
Ar      -0.00046043      -0.00383947      -0.00601851       0.00000909       0.00002508      -0.00002311       0.00000000      -0.00000001       0.00000001      -0.00000000       0.00000001      -0.00000001      -0.06368108
Ar       2.73665772       2.73334939      -0.00615929      -0.00000605       0.00000205       0.00000343       0.00000000       0.00000000      -0.00000000      -0.00000001      -0.00000000       0.00000002      -0.06368087
Ar       5.47380083       5.47055801      -0.00629302      -0.00001257      -0.00001796       0.00002550      -0.00000001      -0.00000000       0.00000001       0.00000001      -0.00000000      -0.00000000      -0.06368065
Ar       2.73663343      -0.00365251       2.73118201       0.00000296      -0.00001068      -0.00004337      -0.00000001       0.00000000      -0.00000001      -0.00000001      -0.00000001       0.00000000      -0.06368044
Ar       5.47384178       2.73344062       2.73074464      -0.00001419      -0.00000432       0.00003470       0.00000000      -0.00000001      -0.00000001      -0.00000001       0.00000000      -0.00000000      -0.06368059
Ar       8.21091569       5.47042462       2.73091059      -0.00000191       0.00001248       0.00000510       0.00000000      -0.00000001      -0.00000001       0.00000001       0.00000001      -0.00000001      -0.06368035
Ar       5.47368198      -0.00359486       5.46798551       0.00002280      -0.00001836       0.00000189      -0.00000000       0.00000000      -0.00000001       0.00000000      -0.00000000       0.00000000      -0.06368067
Ar       8.21086511       2.73337689       5.46801371       0.00000235      -0.00000688       0.00000020      -0.00000001       0.00000001       0.00000001      -0.00000001       0.00000001      -0.00000000      -0.06368086
Ar      10.94791886       5.47041520       5.46808220       0.00000873       0.00000716      -0.00000912      -0.00000000       0.00000001       0.00000000       0.00000002      -0.00000001      -0.00000000      -0.06368095
Ar      -0.00044068       2.73336131       2.73088094      -0.00000165       0.00000129       0.00000907      -0.00000001      -0.00000000       0.00000000      -0.00000001       0.00000000      -0.00000000      -0.06368036
Ar       2.73663902       5.47037796       2.73096672       0.00001502       0.00001097      -0.00000827       0.00000000      -0.00000000       0.00000000       0.00000000      -0.00000001       0.00000001      -0.06368090
Ar       5.47373283       8.20762205       2.73099682       0.00000696      -0.00001473      -0.00001015      -0.00000000       0.00000000      -0.00000001      -0.00000000      -0.00000001       0.00000000      -0.06368068
Ar       2.73664040       2.73334777       5.46802954       0.00000859       0.00001851       0.00000578       0.00000001      -0.00000001       0.00000000      -0.00000001      -0.00000001       0.00000001      -0.06368079
Ar       5.47383441       5.47052372       5.46786988      -0.00001105      -0.00000721       0.00002246       0.00000000       0.00000000       0.00000000       0.00000002       0.00000000       0.00000000      -0.06368098
Ar       8.21083551       8.20753974       5.46814332       0.00000394       0.00000518      -0.00000760      -0.00000000      -0.00000001       0.00000001       0.00000000       0.00000001      -0.00000001      -0.06368081
Ar       5.47388177       2.73348932       8.20494929      -0.00001524      -0.00001577       0.00002502      -0.00000000      -0.00000000      -0.00000000      -0.00000001      -0.00000000      -0.00000000      -0.06368050
Ar       8.21088545       5.47054253       8.20512971      -0.00000470      -0.00000183      -0.00000298       0.00000000      -0.00000000      -0.00000001       0.00000001       0.00000001      -0.00000001      -0.06368051
Ar      10.94806691       8.20758945       8.20526565      -0.00001854      -0.00000491      -0.00002534      -0.00000000      -0.00000000      -0.00000000      -0.00000001      -0.00000000       0.00000001      -0.06368069
Ar      -0.00044205       5.47041199       5.46802723      -0.00000315       0.00000247       0.00000188       0.00000000      -0.00000000      -0.00000000       0.00000001       0.00000002      -0.00000001      -0.06368062
Ar       2.73659034       8.20747306       5.46813176       0.00001009       0.00001315      -0.00001868      -0.00000000      -0.00000000      -0.00000001       0.00000000      -0.00000001       0.00000000      -0.06368045
Ar       5.47376888      10.94459454       5.46797810      -0.00000599       0.00000865       0.00001043       0.00000001      -0.00000000       0.00000000      -0.00000001       0.00000000       0.00000000      -0.06368094
Ar       2.73678915       5.47051610       8.20510747      -0.00001746      -0.00001127       0.00000211      -0.00000000       0.00000000       0.00000001       0.00000002      -0.00000001       0.00000000      -0.06368093
Ar       5.47365752       8.20764555       8.20517920       0.00001991      -0.00001848      -0.00000732      -0.00000000      -0.00000001       0.00000000       0.00000000      -0.00000000      -0.00000000      -0.06368054
Ar       8.21088245      10.94463874       8.20516585       0.00000293      -0.00000201      -0.00001284      -0.00000000       0.00000001      -0.00000001      -0.00000001       0.00000001       0.00000000      -0.06368071
Ar       5.47374265       5.47046773      10.94211545      -0.00000249      -0.00000026       0.00002502       0.00000000       0.00000001       0.00000000       0.00000000      -0.00000001      -0.00000000      -0.06368116
Ar       8.21086325       8.20746388      10.94230813      -0.00000536       0.00001520      -0.00001680       0.00000000      -0.00000001      -0.00000000      -0.00000000       0.00000000      -0.00000000      -0.06368067
Ar      10.94794319      10.94458379      10.94215292       0.00000699       0.00001248       0.00001299      -0.00000000      -0.00000000       0.00000001      -0.00000001      -0.00000001       0.00000001      -0.06368080
