27
Lattice="6.2184680273662094e-09 8.211250868051438 8.211250876794896 8.211250843243521 1.4281319710450304e-08 8.211250868732044 8.211250841804096 8.211250858549164 1.5720743805221415e-08" Properties=species:S:1:pos:R:3:forces:R:3:stresses:R:6:energies:R:1 energy=-1.7193794740309347 stress="-1.0215678675375584e-07 -1.3247392831621567e-12 -2.5862824098143174e-12 -1.3247392831621567e-12 -1.0215994343919671e-07 -7.342713527265393e-12 -2.5862824098143174e-12 -7.342713527265393e-12 -1.0216186404885809e-07" free_energy=-1.7193794740309347 pbc="T T T"
Ar      -0.00046043      -0.00383946      -0.00601850       0.00000909       0.00002508      -0.00002311       0.00000000      -0.00000001       0.00000000      -0.00000000       0.00000001      -0.00000001      -0.06368108
Ar       2.73665233       2.73334400      -0.00615928      -0.00000606       0.00000205       0.00000343      -0.00000000       0.00000000      -0.00000001      -0.00000001      -0.00000000       0.00000002      -0.06368087
Ar       5.47379004       5.47054723      -0.00629301      -0.00001257      -0.00001796       0.00002550      -0.00000001      -0.00000001       0.00000000       0.00000001      -0.00000000      -0.00000000      -0.06368065
Ar       2.73662804      -0.00365250       2.73117663       0.00000296      -0.00001068      -0.00004337      -0.00000001       0.00000000      -0.00000001      -0.00000001      -0.00000001       0.00000000      -0.06368044
Ar       5.47383099       2.73343523       2.73073926      -0.00001419      -0.00000432       0.00003470      -0.00000000      -0.00000001      -0.00000001      -0.00000001       0.00000000      -0.00000000      -0.06368059
Ar       8.21089951       5.47041384       2.73090521      -0.00000191       0.00001248       0.00000510      -0.00000000      -0.00000001      -0.00000001       0.00000001       0.00000001      -0.00000001      -0.06368035
Ar       5.47367119      -0.00359485       5.46797473       0.00002280      -0.00001836       0.00000189      -0.00000001       0.00000000      -0.00000001       0.00000000      -0.00000000       0.00000000      -0.06368067
Ar       8.21084893       2.73337150       5.46800293       0.00000235      -0.00000688       0.00000020      -0.00000001       0.00000000       0.00000000      -0.00000001       0.00000001      -0.00000000      -0.06368086
Ar      10.94789728       5.47040442       5.46807142       0.00000873       0.00000716      -0.00000912      -0.00000000       0.00000000      -0.00000000       0.00000002      -0.00000001      -0.00000000      -0.06368095
Ar      -0.00044068       2.73335592       2.73087556      -0.00000165       0.00000129       0.00000907      -0.00000001      -0.00000001      -0.00000000      -0.00000001       0.00000000      -0.00000000      -0.06368036
Ar       2.73663363       5.47036718       2.73096134       0.00001502       0.00001097      -0.00000827      -0.00000000      -0.00000000      -0.00000000       0.00000000      -0.00000001       0.00000001      -0.06368090
Ar       5.47372204       8.20760587       2.73099144       0.00000695      -0.00001474      -0.00001015      -0.00000000       0.00000000      -0.00000001      -0.00000000      -0.00000001       0.00000000      -0.06368068
Ar       2.73663501       2.73334238       5.46801876       0.00000859       0.00001852       0.00000578       0.00000001      -0.00000002      -0.00000000      -0.00000001      -0.00000001       0.00000001      -0.06368079
Ar       5.47382362       5.47051294       5.46785910      -0.00001105      -0.00000721       0.00002246      -0.00000000      -0.00000000      -0.00000000       0.00000002       0.00000000       0.00000000      -0.06368098
Ar       8.21081933       8.20752356       5.46813254       0.00000394       0.00000518      -0.00000760      -0.00000001      -0.00000001       0.00000000       0.00000000       0.00000001      -0.00000001      -0.06368081
Ar       5.47387098       2.73348393       8.20493312      -0.00001524      -0.00001577       0.00002502      -0.00000001      -0.00000000      -0.00000001      -0.00000001      -0.00000000      -0.00000000      -0.06368050
Ar       8.21086927       5.47053175       8.20511354      -0.00000470      -0.00000183      -0.00000298      -0.00000000      -0.00000000      -0.00000001       0.00000001       0.00000001      -0.00000001      -0.06368051
Ar      10.94804533       8.20757327       8.20524948      -0.00001854      -0.00000491      -0.00002534      -0.00000000      -0.00000000      -0.00000001      -0.00000001      -0.00000000       0.00000001      -0.06368069
Ar      -0.00044205       5.47040121       5.46801645      -0.00000315       0.00000247       0.00000188      -0.00000000      -0.00000000      -0.00000001       0.00000001       0.00000002      -0.00000001      -0.06368062
Ar       2.73658495       8.20745688       5.46812098       0.00001009       0.00001315      -0.00001868      -0.00000001      -0.00000000      -0.00000001       0.00000000      -0.00000001       0.00000000      -0.06368045
Ar       5.47375809      10.94457297       5.46796732      -0.00000599       0.00000865       0.00001043       0.00000000      -0.00000001      -0.00000000      -0.00000001       0.00000000       0.00000000      -0.06368094
Ar       2.73678376       5.47050532       8.20509130      -0.00001746      -0.00001127       0.00000211      -0.00000001      -0.00000000       0.00000000       0.00000002      -0.00000001       0.00000000      -0.06368093
Ar       5.47364673       8.20762937       8.20516303       0.00001991      -0.00001848      -0.00000732      -0.00000000      -0.00000002       0.00000000       0.00000000      -0.00000000      -0.00000000      -0.06368054
Ar       8.21086627      10.94461717       8.20514968       0.00000293      -0.00000201      -0.00001284      -0.00000000       0.00000001      -0.00000002      -0.00000001       0.00000001       0.00000000      -0.06368071
Ar       5.47373186       5.47045695      10.94209388      -0.00000249      -0.00000026       0.00002502      -0.00000000       0.00000000       0.00000000       0.00000000      -0.00000001      -0.00000000      -0.06368116
Ar       8.21084707       8.20744770      10.94228656      -0.00000536       0.00001520      -0.00001680      -0.00000000      -0.00000001      -0.00000000      -0.00000000       0.00000000      -0.00000000      -0.06368067
Ar      10.94792161      10.94456222      10.94213135       0.00000699       0.00001248       0.00001299      -0.00000000      -0.00000001       0.00000000      -0.00000001      -0.00000001       0.00000001      -0.06368080
