1
Lattice="0.0 2.725 2.725 2.725 0.0 2.725 2.725 2.725 0.0" Properties=species:S:1:pos:R:3:forces:R:3:stresses:R:6:energies:R:1 energy=-0.06363244367715234 stress="-0.00018204043822913946 -4.611716440476923e-20 -1.329158102790944e-19 -4.611716440476923e-20 -0.00018204043822913946 1.0810989963359191e-19 -1.329158102790944e-19 1.0810989963359191e-19 -0.00018204043822913946" free_energy=-0.06363244367715234 pbc="T T T"
Ar       0.00000000       0.00000000       0.00000000       0.00000000       0.00000000      -0.00000000      -0.00018204      -0.00018204      -0.00018204       0.00000000      -0.00000000      -0.00000000      -0.06363244
