27
Lattice="1.6737700131854392e-06 8.211255265308504 8.211254698391327 8.211255832874382 2.0610735115924112e-06 8.21125431108783 8.211256118692548 8.211255163823171 1.7752553445024235e-06" Properties=species:S:1:pos:R:3:forces:R:3:stresses:R:6:energies:R:1 energy=-1.7193759882931225 stress="-1.0231845210956972e-07 -5.702574381307016e-10 -4.131028442557865e-10 -5.702574381307016e-10 -1.0214083902121207e-07 -6.26935970167027e-10 -4.131028442557865e-10 -6.26935970167027e-10 -1.0203179835969443e-07" free_energy=-1.7193759882931225 pbc="T T T"
Ar      -0.00083168      -0.00427921      -0.00511556       0.00008656       0.00022924      -0.00010091       0.00000010      -0.00000016       0.00000004      -0.00000006      -0.00000001       0.00000006      -0.06368199
Ar       2.73789131       2.73340057      -0.00637431      -0.00015533       0.00010983       0.00002304       0.00000003       0.00000005      -0.00000003      -0.00000001       0.00000002       0.00000009      -0.06368294
Ar       5.47421673       5.47084541      -0.00619894      -0.00011124      -0.00008799       0.00001968      -0.00000011      -0.00000005       0.00000013       0.00000004      -0.00000004      -0.00000001      -0.06368022
Ar       2.73712046      -0.00327792       2.73097862      -0.00009187      -0.00011717      -0.00005587      -0.00000008      -0.00000001      -0.00000029      -0.00000010       0.00000003       0.00000003      -0.06366982
Ar       5.47478959       2.73281457       2.73111563      -0.00022222       0.00013856       0.00011131      -0.00000001      -0.00000005      -0.00000004      -0.00000004       0.00000002      -0.00000015      -0.06367844
Ar       8.20993208       5.46994327       2.73100995       0.00008212       0.00010380       0.00004314      -0.00000002      -0.00000010      -0.00000012      -0.00000007      -0.00000007       0.00000002      -0.06367402
Ar       5.47308972      -0.00422115       5.46737168       0.00020773       0.00003301       0.00007135       0.00000000       0.00000001       0.00000002       0.00000009      -0.00000002       0.00000004      -0.06368143
Ar       8.21060471       2.73332871       5.46940476      -0.00004393      -0.00013317      -0.00011009      -0.00000001       0.00000007       0.00000008      -0.00000001      -0.00000002       0.00000005      -0.06368590
Ar      10.94764017       5.47015715       5.46737824       0.00009366      -0.00004215       0.00002456       0.00000005      -0.00000000       0.00000010      -0.00000000      -0.00000000      -0.00000005      -0.06368544
Ar       0.00064338       2.73442195       2.72990776      -0.00012702      -0.00010090       0.00012038      -0.00000012      -0.00000000       0.00000002       0.00000009      -0.00000003       0.00000002      -0.06367668
Ar       2.73641333       5.47062169       2.73115393       0.00023607      -0.00010635      -0.00002105      -0.00000000      -0.00000001       0.00000008       0.00000002       0.00000005      -0.00000007      -0.06368285
Ar       5.47315695       8.20847897       2.73174421       0.00008525      -0.00017802      -0.00007830      -0.00000005       0.00000007      -0.00000024       0.00000002      -0.00000001       0.00000003      -0.06367504
Ar       2.73573964       2.73220647       5.46811666       0.00014331       0.00028480       0.00009609       0.00000008       0.00000005       0.00000016       0.00000001      -0.00000008      -0.00000002      -0.06368806
Ar       5.47332906       5.46994853       5.46867222      -0.00008080       0.00002266      -0.00005142       0.00000004       0.00000020       0.00000010      -0.00000003      -0.00000002       0.00000006      -0.06369069
Ar       8.21094778       8.20715699       5.46626684      -0.00007061       0.00004406       0.00033933      -0.00000001      -0.00000004       0.00000014      -0.00000002      -0.00000002      -0.00000001      -0.06368404
Ar       5.47283424       2.73218024       8.20604760       0.00006287       0.00017949      -0.00020189       0.00000006      -0.00000002      -0.00000003       0.00000003       0.00000004      -0.00000005      -0.06367944
Ar       8.21042020       5.47086237       8.20453761       0.00008133      -0.00002952      -0.00001243       0.00000011       0.00000006      -0.00000017      -0.00000006       0.00000002      -0.00000002      -0.06367984
Ar      10.94867113       8.20670050       8.20521272      -0.00024547       0.00004185      -0.00010980      -0.00000004      -0.00000010      -0.00000003       0.00000005       0.00000011      -0.00000009      -0.06367595
Ar       0.00090975       5.47216021       5.46872108      -0.00019491      -0.00030923      -0.00010281       0.00000003       0.00000006       0.00000003      -0.00000001       0.00000009      -0.00000001      -0.06368310
Ar       2.73720937       8.20865375       5.46776012      -0.00006458      -0.00006984       0.00012293      -0.00000007      -0.00000007      -0.00000006      -0.00000002      -0.00000003      -0.00000007      -0.06367454
Ar       5.47497599      10.94498266       5.46749603      -0.00009059       0.00013325      -0.00003172       0.00000017       0.00000002       0.00000005      -0.00000005       0.00000006       0.00000003      -0.06368805
Ar       2.73672417       5.47163742       8.20574253      -0.00004221      -0.00027165      -0.00011208      -0.00000004       0.00000013       0.00000000       0.00000003      -0.00000009       0.00000004      -0.06368375
Ar       5.47321986       8.20824809       8.20542223       0.00022308      -0.00014049      -0.00016177      -0.00000011      -0.00000018       0.00000006      -0.00000004      -0.00000005      -0.00000001      -0.06367414
Ar       8.21010042      10.94420008       8.20556541       0.00020199       0.00003129      -0.00026049      -0.00000007       0.00000020      -0.00000010       0.00000002      -0.00000004      -0.00000001      -0.06368205
Ar       5.47415392       5.46983345      10.94124361      -0.00004541       0.00007495       0.00020447       0.00000011       0.00000004      -0.00000000      -0.00000002       0.00000005       0.00000008      -0.06368571
Ar       8.21161991       8.20696421      10.94183852      -0.00019070       0.00006305       0.00009632      -0.00000010      -0.00000015       0.00000001       0.00000012      -0.00000001       0.00000001      -0.06367473
Ar      10.94601992      10.94450364      10.94161678       0.00027291       0.00009665       0.00013800      -0.00000004      -0.00000010      -0.00000001       0.00000002       0.00000005       0.00000003      -0.06367712
