1
Lattice="0.0 1.805 1.805 1.805 0.0 1.805 1.805 1.805 0.0" Properties=species:S:1:pos:R:3:forces:R:3:energies:R:1 energy=-0.005681511358588409 free_energy=-0.005681511358588409 pbc="T T T"
Cu       0.02483571      -0.00691322       0.03238443       0.00000000       0.00000000       0.00000000      -0.00568151
