1
Lattice="3.084805330651053 1.0742076332194084e-32 -1.706605372531153e-32 -1.0741515838976698e-32 3.084805330651053 4.1875535486868614e-18 -4.8113922856196794e-32 4.187553548686862e-18 3.084805330651053" Properties=species:S:1:pos:R:3:forces:R:3:stresses:R:6:energies:R:1 energy=0.21862558849151664 stress="-0.05000176770870104 -5.540108166986174e-21 -1.2917079080426814e-20 -5.540108166986174e-21 -0.05000176770870105 -1.458776510088901e-19 -1.2917079080426814e-20 -1.458776510088901e-19 -0.05000176770870104" free_energy=0.21862558849151664 pbc="T T T"
Ar       0.00000000       0.00000000       0.00000000       0.00000000       0.00000000      -0.00000000      -0.05000177      -0.05000177      -0.05000177      -0.00000000      -0.00000000      -0.00000000       0.21862559
