1
Lattice="0.0 2.656875 2.656875 2.656875 0.0 2.656875 2.656875 2.656875 0.0" Properties=species:S:1:pos:R:3:forces:R:3:stresses:R:6:energies:R:1 energy=-0.061137210662256664 stress="-0.001659447787586583 -1.7731142139050546e-20 -1.7394419032551887e-20 -1.7731142139050546e-20 -0.0016594477875865826 2.3586980259816617e-20 -1.7394419032551887e-20 2.3586980259816617e-20 -0.0016594477875865824" free_energy=-0.061137210662256664 pbc="T T T"
Ar       0.00000000       0.00000000       0.00000000       0.00000000       0.00000000      -0.00000000      -0.00165945      -0.00165945      -0.00165945       0.00000000      -0.00000000      -0.00000000      -0.06113721
