1
Lattice="0.0 1.7 1.7 1.7 0.0 1.7 1.7 1.7 0.0" Properties=species:S:1:pos:R:3:forces:R:3:stresses:R:6:energies:R:1 energy=-0.09076728620015578 stress="0.025035679810571948 9.288342005103174e-20 9.288342005103174e-20 9.288342005103174e-20 0.025035679810571948 -9.288342005103174e-20 9.288342005103174e-20 -9.288342005103174e-20 0.025035679810571948" free_energy=-0.09076728620015578 pbc="T T T"
Ar       0.00000000       0.00000000       0.00000000       0.00000000       0.00000000       0.00000000       0.02503568       0.02503568       0.02503568      -0.00000000       0.00000000       0.00000000      -0.09076729
