1
Lattice="-0.008974564063241841 1.7949128126483682 1.7949576865905328 1.7949128126483682 -0.008974564063241841 1.7949576865905328 1.7859382485851263 1.7859382485851263 0.0" Properties=species:S:1:pos:R:3:forces:R:3:energies:R:1 B=0.8393055437138042 v0=11.56538431290843 scale=0.9999514276592582 energy=-0.0067118736927334055 free_energy=-0.0067118736927334055 strain=mono_vol_cons delta=-0.01 pbc="T T T"
Cu       0.00000000       0.00000000       0.00000000       0.00000000       0.00000000       0.00000000      -0.00671187
