1
Lattice="-0.004487282031620921 1.7949128126483682 1.7949240309235615 1.7949128126483682 -0.004487282031620921 1.7949240309235615 1.7904255306167474 1.7904255306167474 0.0" Properties=species:S:1:pos:R:3:forces:R:3:energies:R:1 B=0.8393055437138042 v0=11.56538431290843 scale=0.9999514276592582 energy=-0.0069553621158835455 free_energy=-0.0069553621158835455 strain=mono_vol_cons delta=-0.005 pbc="T T T"
Cu       0.00000000       0.00000000       0.00000000       0.00000000       0.00000000       0.00000000      -0.00695536
