1
Lattice="0.006730923047431381 1.7949128126483682 1.7949380539647521 1.7949128126483682 0.006730923047431381 1.7949380539647521 1.8016437356957995 1.8016437356957995 0.0" Properties=species:S:1:pos:R:3:forces:R:3:energies:R:1 B=0.8393055437138042 v0=11.56538431290843 scale=0.9999514276592582 energy=-0.0068539265868761134 free_energy=-0.0068539265868761134 strain=mono_vol_cons delta=0.0075 pbc="T T T"
Cu       0.00000000       0.00000000       0.00000000       0.00000000       0.00000000       0.00000000      -0.00685393
