1
Lattice="0.0 1.7949128126483682 1.7949128126483682 1.7949128126483682 0.0 1.7949128126483682 1.7949128126483682 1.7949128126483682 0.0" Properties=species:S:1:pos:R:3:forces:R:3:energies:R:1 B=0.8393055437138042 v0=11.56538431290843 scale=0.9999514276592582 energy=-0.0070364920516627905 free_energy=-0.0070364920516627905 strain=mono_vol_cons delta=0.0 pbc="T T T"
Cu       0.00000000       0.00000000       0.00000000       0.00000000       0.00000000       0.00000000      -0.00703649
