1
Lattice="0.0 1.7769636845218846 1.7950923218805561 1.8128619407748519 0.0 1.7950923218805561 1.8128619407748519 1.7769636845218846 0.0" Properties=species:S:1:pos:R:3:forces:R:3:energies:R:1 B=0.8393055437138042 v0=11.56538431290843 scale=0.9999514276592582 energy=-0.006624319505487364 free_energy=-0.006624319505487364 strain=mono_vol_cons delta=0.01 pbc="T T T"
Cu       0.00000000       0.00000000       0.00000000       0.00000000       0.00000000       0.00000000      -0.00662432
