27
Lattice="1.6737733123536353e-06 8.211271450514362 8.211270883596068 8.21127201808136 2.0610775741745614e-06 8.211270496291807 8.211272303900088 8.211271349028829 1.7752588437083638e-06" Properties=species:S:1:pos:R:3:forces:R:3:stresses:R:6:energies:R:1 energy=-1.7193759887106608 stress="-2.5461941163923683e-08 -5.702467635197669e-10 -4.1307429011316315e-10 -5.702467635197669e-10 -2.52843179885688e-08 -6.269128533245527e-10 -4.1307429011316315e-10 -6.269128533245527e-10 -2.51752825769889e-08" free_energy=-1.7193759887106608 B=0.01302995548127865 v0=1107.2892223859665 scale=1.0000019711000736 pbc="T T T"
Ar      -0.00083168      -0.00427922      -0.00511557       0.00008656       0.00022924      -0.00010091       0.00000011      -0.00000016       0.00000004      -0.00000006      -0.00000001       0.00000006      -0.06368199
Ar       2.73789671       2.73340596      -0.00637432      -0.00015532       0.00010982       0.00002304       0.00000003       0.00000005      -0.00000003      -0.00000001       0.00000002       0.00000009      -0.06368294
Ar       5.47422752       5.47085619      -0.00619895      -0.00011124      -0.00008799       0.00001968      -0.00000011      -0.00000004       0.00000014       0.00000004      -0.00000004      -0.00000001      -0.06368022
Ar       2.73712586      -0.00327793       2.73098400      -0.00009186      -0.00011716      -0.00005586      -0.00000008      -0.00000001      -0.00000028      -0.00000010       0.00000003       0.00000003      -0.06366982
Ar       5.47480038       2.73281996       2.73112101      -0.00022221       0.00013856       0.00011131      -0.00000000      -0.00000005      -0.00000004      -0.00000004       0.00000002      -0.00000015      -0.06367844
Ar       8.20994826       5.46995405       2.73101533       0.00008212       0.00010379       0.00004314      -0.00000002      -0.00000010      -0.00000011      -0.00000007      -0.00000007       0.00000002      -0.06367402
Ar       5.47310051      -0.00422116       5.46738246       0.00020773       0.00003301       0.00007135       0.00000000       0.00000001       0.00000002       0.00000009      -0.00000002       0.00000004      -0.06368143
Ar       8.21062089       2.73333410       5.46941554      -0.00004393      -0.00013317      -0.00011008      -0.00000000       0.00000008       0.00000008      -0.00000001      -0.00000002       0.00000005      -0.06368590
Ar      10.94766175       5.47016793       5.46738902       0.00009366      -0.00004215       0.00002456       0.00000005       0.00000000       0.00000010      -0.00000000      -0.00000000      -0.00000005      -0.06368544
Ar       0.00064338       2.73442734       2.72991314      -0.00012701      -0.00010090       0.00012038      -0.00000012      -0.00000000       0.00000003       0.00000009      -0.00000003       0.00000002      -0.06367668
Ar       2.73641872       5.47063247       2.73115931       0.00023607      -0.00010635      -0.00002106      -0.00000000      -0.00000001       0.00000008       0.00000002       0.00000005      -0.00000007      -0.06368285
Ar       5.47316774       8.20849515       2.73174959       0.00008525      -0.00017802      -0.00007829      -0.00000005       0.00000008      -0.00000023       0.00000002      -0.00000001       0.00000003      -0.06367504
Ar       2.73574503       2.73221186       5.46812744       0.00014330       0.00028479       0.00009609       0.00000008       0.00000005       0.00000016       0.00000001      -0.00000008      -0.00000002      -0.06368806
Ar       5.47333985       5.46995931       5.46868300      -0.00008080       0.00002266      -0.00005141       0.00000004       0.00000020       0.00000010      -0.00000003      -0.00000002       0.00000006      -0.06369069
Ar       8.21096396       8.20717317       5.46627761      -0.00007061       0.00004405       0.00033931      -0.00000000      -0.00000003       0.00000014      -0.00000002      -0.00000002      -0.00000001      -0.06368404
Ar       5.47284503       2.73218563       8.20606377       0.00006286       0.00017948      -0.00020188       0.00000006      -0.00000002      -0.00000003       0.00000003       0.00000004      -0.00000005      -0.06367944
Ar       8.21043638       5.47087315       8.20455378       0.00008132      -0.00002952      -0.00001243       0.00000011       0.00000006      -0.00000016      -0.00000006       0.00000002      -0.00000002      -0.06367984
Ar      10.94869271       8.20671668       8.20522889      -0.00024547       0.00004185      -0.00010980      -0.00000003      -0.00000010      -0.00000002       0.00000005       0.00000011      -0.00000009      -0.06367595
Ar       0.00090975       5.47217100       5.46873186      -0.00019491      -0.00030922      -0.00010280       0.00000003       0.00000006       0.00000003      -0.00000001       0.00000009      -0.00000001      -0.06368310
Ar       2.73721477       8.20866993       5.46777090      -0.00006458      -0.00006983       0.00012293      -0.00000007      -0.00000007      -0.00000005      -0.00000002      -0.00000003      -0.00000007      -0.06367455
Ar       5.47498678      10.94500423       5.46750681      -0.00009059       0.00013325      -0.00003172       0.00000018       0.00000002       0.00000005      -0.00000005       0.00000006       0.00000003      -0.06368805
Ar       2.73672956       5.47164821       8.20575870      -0.00004221      -0.00027164      -0.00011208      -0.00000004       0.00000013       0.00000001       0.00000003      -0.00000009       0.00000004      -0.06368375
Ar       5.47323065       8.20826427       8.20543840       0.00022307      -0.00014049      -0.00016177      -0.00000010      -0.00000018       0.00000006      -0.00000004      -0.00000005      -0.00000001      -0.06367414
Ar       8.21011660      10.94422165       8.20558158       0.00020199       0.00003129      -0.00026048      -0.00000007       0.00000020      -0.00000010       0.00000002      -0.00000004      -0.00000001      -0.06368205
Ar       5.47416471       5.46984423      10.94126518      -0.00004541       0.00007495       0.00020447       0.00000011       0.00000004      -0.00000000      -0.00000002       0.00000005       0.00000008      -0.06368571
Ar       8.21163610       8.20698039      10.94186009      -0.00019069       0.00006304       0.00009632      -0.00000009      -0.00000015       0.00000001       0.00000012      -0.00000001       0.00000001      -0.06367473
Ar      10.94604150      10.94452521      10.94163835       0.00027290       0.00009665       0.00013799      -0.00000004      -0.00000010      -0.00000001       0.00000002       0.00000005       0.00000003      -0.06367713
