4
Lattice="5.474033150414215 0.0008282009051263152 -0.0002533042073494038 0.0008282009052108153 5.477631735848179 -0.00013383519152554372 -0.0002533042073311103 -0.00013383519151844743 5.470918966210589" Properties=species:S:1:pos:R:3:forces:R:3:stresses:R:6:energies:R:1 energy=-0.2547222834755177 stress="-1.8821240070647756e-07 3.1156402605498186e-06 -9.652761828947983e-07 3.1156402605498186e-06 5.053349967517845e-06 -5.067526088751243e-07 -9.652761828947983e-07 -5.067526088751243e-07 -4.6539386231078566e-06" free_energy=-0.2547222834755177 pbc="T T T"
Ar       0.02348006      -0.00060168      -0.00290252       0.00002853       0.00007366       0.00000202      -0.00000005       0.00000126      -0.00000116      -0.00000013      -0.00000024       0.00000078      -0.06368057
Ar       0.02405410       2.73849614       2.73252259      -0.00003619      -0.00005551      -0.00004164      -0.00000005       0.00000126      -0.00000116      -0.00000013      -0.00000024       0.00000078      -0.06368057
Ar       2.76064333      -0.00002294       2.73239558      -0.00002922       0.00002169      -0.00002624      -0.00000005       0.00000126      -0.00000116      -0.00000013      -0.00000024       0.00000078      -0.06368057
Ar       2.76089255       2.73890801      -0.00337949       0.00003688      -0.00003984       0.00006586      -0.00000005       0.00000126      -0.00000116      -0.00000013      -0.00000024       0.00000078      -0.06368057
