27
Lattice="0.0 6.0 6.0 6.0 0.0 6.0 6.0 6.0 0.0" Properties=species:S:1:pos:R:3:forces:R:3:stresses:R:6:energies:R:1 energy=53.950380705469925 stress="-0.6083676892020239 -4.312575096167476e-07 -3.228763473815759e-07 -4.312575096167476e-07 -0.608367531554947 -4.711601108465555e-07 -3.228763473815759e-07 -4.711601108465555e-07 -0.6083674488202893" free_energy=53.950380705469925 pbc="T T T"
Ar      -0.00060771      -0.00312684      -0.00373796       0.00753301       0.02146591      -0.00909620      -0.02251722      -0.02255883      -0.02252342      -0.00001137      -0.00000118       0.00001047       1.99825887
Ar       2.00058890       1.99730773      -0.00465817      -0.01407108       0.01112983       0.00153936      -0.02252786      -0.02252324      -0.02253702      -0.00000095       0.00000302       0.00001809       1.99788055
Ar       4.00003360       3.99757063      -0.00453046      -0.01094899      -0.00826090       0.00125065      -0.02255044      -0.02254199      -0.02250593       0.00000787      -0.00000837       0.00000006       1.99822833
Ar       2.00002571      -0.00239569       1.99553821      -0.00841654      -0.01071147      -0.00486927      -0.02254632      -0.02253178      -0.02258161      -0.00001784       0.00000772       0.00000419       2.00029211
Ar       4.00045226       1.99687904       1.99563789      -0.02041975       0.01381805       0.01196201      -0.02253341      -0.02253949      -0.02253877      -0.00000774       0.00000392      -0.00002955       1.99867445
Ar       5.99903259       3.99691093       1.99556024       0.00676768       0.00952551       0.00438544      -0.02253285      -0.02255231      -0.02255199      -0.00001230      -0.00001184       0.00000262       1.99953216
Ar       3.99921023      -0.00308542       3.99503277       0.01955382       0.00289444       0.00552117      -0.02253275      -0.02252478      -0.02253264       0.00001667      -0.00000331       0.00000776       1.99795354
Ar       5.99952415       1.99725422       3.99651792      -0.00473253      -0.01283872      -0.00774592      -0.02253103      -0.02251821      -0.02251980      -0.00000216      -0.00000336       0.00000842       1.99723997
Ar       7.99948768       3.99706671       3.99503670       0.00921266      -0.00499741       0.00207740      -0.02252296      -0.02253240      -0.02251366       0.00000024      -0.00000242      -0.00001038       1.99724064
Ar       0.00046971       1.99805403       1.99475563      -0.01101506      -0.00784492       0.01052531      -0.02255276      -0.02253394      -0.02252360       0.00001700      -0.00000657       0.00000287       1.99863545
Ar       1.99950853       3.99740713       1.99566578       0.02280057      -0.01134873      -0.00146320      -0.02253090      -0.02253623      -0.02251683       0.00000317       0.00000890      -0.00001219       1.99774325
Ar       3.99925881       5.99797140       1.99609667       0.00782382      -0.01616656      -0.00571944      -0.02254271      -0.02251695      -0.02257244       0.00000291      -0.00000239       0.00000645       1.99936155
Ar       1.99901633       1.99643467       3.99557704       0.01237013       0.02713492       0.01011705      -0.02251396      -0.02252599      -0.02250457       0.00000119      -0.00001564      -0.00000200       1.99642208
Ar       3.99938464       3.99691475       3.99598256      -0.00870179       0.00065931      -0.00427218      -0.02252379      -0.02249744      -0.02251419      -0.00000417      -0.00000153       0.00001250       1.99611204
Ar       5.99977436       5.99700492       3.99422450      -0.00686602       0.00398546       0.03127482      -0.02253389      -0.02253689      -0.02250603      -0.00000226      -0.00000211      -0.00000173       1.99750300
Ar       3.99902314       1.99641500       5.99619534       0.00506108       0.01633696      -0.01923106      -0.02252107      -0.02253784      -0.02253417       0.00000480       0.00000710      -0.00001183       1.99805667
Ar       5.99938892       3.99758199       5.99509155       0.00707982      -0.00182399      -0.00248241      -0.02251328      -0.02251865      -0.02256133      -0.00001062       0.00000422      -0.00000393       1.99806152
Ar       8.00024060       5.99667086       5.99558442      -0.02269085       0.00309644      -0.01103361      -0.02253692      -0.02254537      -0.02254053       0.00000637       0.00002015      -0.00001578       1.99905149
Ar       0.00066394       3.99853131       3.99601860      -0.01746618      -0.02834839      -0.00870697      -0.02252233      -0.02251906      -0.02253037      -0.00000312       0.00001704      -0.00000385       1.99733956
Ar       2.00008979       5.99809909       3.99531599      -0.00549577      -0.00561009       0.01136539      -0.02254218      -0.02254155      -0.02254556      -0.00000256      -0.00000612      -0.00001408       1.99927018
Ar       4.00058758       7.99754657       3.99512258      -0.00668441       0.01392171      -0.00372940      -0.02250020      -0.02252659      -0.02252632      -0.00000983       0.00001047       0.00000322       1.99670574
Ar       1.99973532       3.99814880       5.99597233      -0.00319621      -0.02550454      -0.01106094      -0.02254014      -0.02251107      -0.02252835       0.00000664      -0.00001536       0.00000660       1.99759499
Ar       3.99930444       5.99780217       5.99573785       0.02110976      -0.01321012      -0.01569735      -0.02254866      -0.02256393      -0.02252122      -0.00000654      -0.00000885      -0.00000235       1.99942109
Ar       5.99915478       7.99697423       5.99584204       0.01900294       0.00218557      -0.02610603      -0.02254290      -0.02249747      -0.02255022       0.00000285      -0.00000760      -0.00000142       1.99796532
Ar       3.99998703       3.99683013       7.99481512      -0.00392611       0.00535740       0.01957634      -0.02251529      -0.02252574      -0.02252922      -0.00000396       0.00000914       0.00001538       1.99728049
Ar       6.00026515       5.99686353       7.99524939      -0.01784315       0.00482693       0.00903832      -0.02255065      -0.02255927      -0.02252765       0.00002171      -0.00000386       0.00000331       1.99954322
Ar       7.99830294       7.99719554       7.99508693       0.02415915       0.01032742       0.01258072      -0.02254123      -0.02255052      -0.02253000       0.00000355       0.00000851       0.00000674       1.99901245
