125
Lattice="0.0 8.975 8.975 8.975 0.0 8.975 8.975 8.975 0.0" Properties=species:S:1:pos:R:3:forces:R:3:energies:R:1 energy=-0.8795486194224615 free_energy=-0.8795486194224615 pbc="T T T"
Cu       0.00000000       0.00000000       0.00000000       0.00000000      -0.00000000       0.00000000      -0.00703639
Cu       1.79500000       1.79500000       0.00000000      -0.00000000       0.00000000      -0.00000000      -0.00703639
Cu       3.59000000       3.59000000       0.00000000      -0.00000000       0.00000000      -0.00000000      -0.00703639
Cu       5.38500000       5.38500000       0.00000000       0.00000000      -0.00000000       0.00000000      -0.00703639
Cu       7.18000000       7.18000000       0.00000000      -0.00000000      -0.00000000      -0.00000000      -0.00703639
Cu       1.79500000       0.00000000       1.79500000       0.00000000       0.00000000      -0.00000000      -0.00703639
Cu       3.59000000       1.79500000       1.79500000      -0.00000000      -0.00000000      -0.00000000      -0.00703639
Cu       5.38500000       3.59000000       1.79500000      -0.00000000       0.00000000      -0.00000000      -0.00703639
Cu       7.18000000       5.38500000       1.79500000       0.00000000      -0.00000000      -0.00000000      -0.00703639
Cu       8.97500000       7.18000000       1.79500000       0.00000000       0.00000000       0.00000000      -0.00703639
Cu       3.59000000       0.00000000       3.59000000      -0.00000000      -0.00000000      -0.00000000      -0.00703639
Cu       5.38500000       1.79500000       3.59000000       0.00000000      -0.00000000      -0.00000000      -0.00703639
Cu       7.18000000       3.59000000       3.59000000       0.00000000      -0.00000000       0.00000000      -0.00703639
Cu       8.97500000       5.38500000       3.59000000       0.00000000      -0.00000000      -0.00000000      -0.00703639
Cu      10.77000000       7.18000000       3.59000000       0.00000000      -0.00000000      -0.00000000      -0.00703639
Cu       5.38500000       0.00000000       5.38500000      -0.00000000       0.00000000      -0.00000000      -0.00703639
Cu       7.18000000       1.79500000       5.38500000       0.00000000      -0.00000000       0.00000000      -0.00703639
Cu       8.97500000       3.59000000       5.38500000      -0.00000000       0.00000000      -0.00000000      -0.00703639
Cu      10.77000000       5.38500000       5.38500000       0.00000000      -0.00000000       0.00000000      -0.00703639
Cu      12.56500000       7.18000000       5.38500000       0.00000000      -0.00000000      -0.00000000      -0.00703639
Cu       7.18000000       0.00000000       7.18000000      -0.00000000       0.00000000      -0.00000000      -0.00703639
Cu       8.97500000       1.79500000       7.18000000       0.00000000      -0.00000000      -0.00000000      -0.00703639
Cu      10.77000000       3.59000000       7.18000000       0.00000000      -0.00000000      -0.00000000      -0.00703639
Cu      12.56500000       5.38500000       7.18000000       0.00000000      -0.00000000       0.00000000      -0.00703639
Cu      14.36000000       7.18000000       7.18000000       0.00000000      -0.00000000      -0.00000000      -0.00703639
Cu       0.00000000       1.79500000       1.79500000      -0.00000000       0.00000000       0.00000000      -0.00703639
Cu       1.79500000       3.59000000       1.79500000       0.00000000       0.00000000       0.00000000      -0.00703639
Cu       3.59000000       5.38500000       1.79500000      -0.00000000      -0.00000000       0.00000000      -0.00703639
Cu       5.38500000       7.18000000       1.79500000       0.00000000      -0.00000000      -0.00000000      -0.00703639
Cu       7.18000000       8.97500000       1.79500000      -0.00000000      -0.00000000      -0.00000000      -0.00703639
Cu       1.79500000       1.79500000       3.59000000       0.00000000       0.00000000       0.00000000      -0.00703639
Cu       3.59000000       3.59000000       3.59000000       0.00000000      -0.00000000       0.00000000      -0.00703639
Cu       5.38500000       5.38500000       3.59000000      -0.00000000      -0.00000000      -0.00000000      -0.00703639
Cu       7.18000000       7.18000000       3.59000000       0.00000000      -0.00000000      -0.00000000      -0.00703639
Cu       8.97500000       8.97500000       3.59000000       0.00000000      -0.00000000       0.00000000      -0.00703639
Cu       3.59000000       1.79500000       5.38500000      -0.00000000       0.00000000       0.00000000      -0.00703639
Cu       5.38500000       3.59000000       5.38500000      -0.00000000      -0.00000000       0.00000000      -0.00703639
Cu       7.18000000       5.38500000       5.38500000      -0.00000000       0.00000000       0.00000000      -0.00703639
Cu       8.97500000       7.18000000       5.38500000       0.00000000      -0.00000000      -0.00000000      -0.00703639
Cu      10.77000000       8.97500000       5.38500000      -0.00000000      -0.00000000       0.00000000      -0.00703639
Cu       5.38500000       1.79500000       7.18000000      -0.00000000      -0.00000000       0.00000000      -0.00703639
Cu       7.18000000       3.59000000       7.18000000      -0.00000000      -0.00000000       0.00000000      -0.00703639
Cu       8.97500000       5.38500000       7.18000000       0.00000000       0.00000000       0.00000000      -0.00703639
Cu      10.77000000       7.18000000       7.18000000       0.00000000      -0.00000000       0.00000000      -0.00703639
Cu      12.56500000       8.97500000       7.18000000      -0.00000000       0.00000000       0.00000000      -0.00703639
Cu       7.18000000       1.79500000       8.97500000      -0.00000000      -0.00000000       0.00000000      -0.00703639
Cu       8.97500000       3.59000000       8.97500000       0.00000000       0.00000000       0.00000000      -0.00703639
Cu      10.77000000       5.38500000       8.97500000       0.00000000      -0.00000000       0.00000000      -0.00703639
Cu      12.56500000       7.18000000       8.97500000      -0.00000000       0.00000000      -0.00000000      -0.00703639
Cu      14.36000000       8.97500000       8.97500000       0.00000000      -0.00000000      -0.00000000      -0.00703639
Cu       0.00000000       3.59000000       3.59000000      -0.00000000      -0.00000000      -0.00000000      -0.00703639
Cu       1.79500000       5.38500000       3.59000000      -0.00000000       0.00000000       0.00000000      -0.00703639
Cu       3.59000000       7.18000000       3.59000000       0.00000000       0.00000000       0.00000000      -0.00703639
Cu       5.38500000       8.97500000       3.59000000       0.00000000       0.00000000       0.00000000      -0.00703639
Cu       7.18000000      10.77000000       3.59000000      -0.00000000       0.00000000      -0.00000000      -0.00703639
Cu       1.79500000       3.59000000       5.38500000       0.00000000      -0.00000000       0.00000000      -0.00703639
Cu       3.59000000       5.38500000       5.38500000       0.00000000      -0.00000000       0.00000000      -0.00703639
Cu       5.38500000       7.18000000       5.38500000       0.00000000      -0.00000000      -0.00000000      -0.00703639
Cu       7.18000000       8.97500000       5.38500000       0.00000000       0.00000000      -0.00000000      -0.00703639
Cu       8.97500000      10.77000000       5.38500000      -0.00000000      -0.00000000      -0.00000000      -0.00703639
Cu       3.59000000       3.59000000       7.18000000      -0.00000000       0.00000000       0.00000000      -0.00703639
Cu       5.38500000       5.38500000       7.18000000      -0.00000000       0.00000000       0.00000000      -0.00703639
Cu       7.18000000       7.18000000       7.18000000       0.00000000      -0.00000000       0.00000000      -0.00703639
Cu       8.97500000       8.97500000       7.18000000       0.00000000      -0.00000000       0.00000000      -0.00703639
Cu      10.77000000      10.77000000       7.18000000       0.00000000       0.00000000       0.00000000      -0.00703639
Cu       5.38500000       3.59000000       8.97500000       0.00000000      -0.00000000       0.00000000      -0.00703639
Cu       7.18000000       5.38500000       8.97500000      -0.00000000      -0.00000000      -0.00000000      -0.00703639
Cu       8.97500000       7.18000000       8.97500000       0.00000000      -0.00000000       0.00000000      -0.00703639
Cu      10.77000000       8.97500000       8.97500000       0.00000000      -0.00000000       0.00000000      -0.00703639
Cu      12.56500000      10.77000000       8.97500000       0.00000000      -0.00000000       0.00000000      -0.00703639
Cu       7.18000000       3.59000000      10.77000000      -0.00000000      -0.00000000       0.00000000      -0.00703639
Cu       8.97500000       5.38500000      10.77000000      -0.00000000      -0.00000000       0.00000000      -0.00703639
Cu      10.77000000       7.18000000      10.77000000       0.00000000      -0.00000000       0.00000000      -0.00703639
Cu      12.56500000       8.97500000      10.77000000      -0.00000000      -0.00000000       0.00000000      -0.00703639
Cu      14.36000000      10.77000000      10.77000000       0.00000000       0.00000000      -0.00000000      -0.00703639
Cu       0.00000000       5.38500000       5.38500000       0.00000000       0.00000000      -0.00000000      -0.00703639
Cu       1.79500000       7.18000000       5.38500000      -0.00000000       0.00000000       0.00000000      -0.00703639
Cu       3.59000000       8.97500000       5.38500000       0.00000000       0.00000000       0.00000000      -0.00703639
Cu       5.38500000      10.77000000       5.38500000      -0.00000000       0.00000000       0.00000000      -0.00703639
Cu       7.18000000      12.56500000       5.38500000      -0.00000000       0.00000000      -0.00000000      -0.00703639
Cu       1.79500000       5.38500000       7.18000000      -0.00000000      -0.00000000       0.00000000      -0.00703639
Cu       3.59000000       7.18000000       7.18000000       0.00000000      -0.00000000       0.00000000      -0.00703639
Cu       5.38500000       8.97500000       7.18000000       0.00000000       0.00000000       0.00000000      -0.00703639
Cu       7.18000000      10.77000000       7.18000000      -0.00000000      -0.00000000       0.00000000      -0.00703639
Cu       8.97500000      12.56500000       7.18000000       0.00000000      -0.00000000      -0.00000000      -0.00703639
Cu       3.59000000       5.38500000       8.97500000      -0.00000000      -0.00000000       0.00000000      -0.00703639
Cu       5.38500000       7.18000000       8.97500000      -0.00000000       0.00000000       0.00000000      -0.00703639
Cu       7.18000000       8.97500000       8.97500000       0.00000000       0.00000000       0.00000000      -0.00703639
Cu       8.97500000      10.77000000       8.97500000       0.00000000       0.00000000       0.00000000      -0.00703639
Cu      10.77000000      12.56500000       8.97500000       0.00000000      -0.00000000       0.00000000      -0.00703639
Cu       5.38500000       5.38500000      10.77000000      -0.00000000       0.00000000       0.00000000      -0.00703639
Cu       7.18000000       7.18000000      10.77000000       0.00000000       0.00000000       0.00000000      -0.00703639
Cu       8.97500000       8.97500000      10.77000000      -0.00000000      -0.00000000      -0.00000000      -0.00703639
Cu      10.77000000      10.77000000      10.77000000       0.00000000       0.00000000      -0.00000000      -0.00703639
Cu      12.56500000      12.56500000      10.77000000       0.00000000      -0.00000000      -0.00000000      -0.00703639
Cu       7.18000000       5.38500000      12.56500000      -0.00000000      -0.00000000       0.00000000      -0.00703639
Cu       8.97500000       7.18000000      12.56500000       0.00000000      -0.00000000      -0.00000000      -0.00703639
Cu      10.77000000       8.97500000      12.56500000       0.00000000      -0.00000000       0.00000000      -0.00703639
Cu      12.56500000      10.77000000      12.56500000      -0.00000000      -0.00000000      -0.00000000      -0.00703639
Cu      14.36000000      12.56500000      12.56500000       0.00000000      -0.00000000       0.00000000      -0.00703639
Cu       0.00000000       7.18000000       7.18000000      -0.00000000      -0.00000000      -0.00000000      -0.00703639
Cu       1.79500000       8.97500000       7.18000000      -0.00000000       0.00000000      -0.00000000      -0.00703639
Cu       3.59000000      10.77000000       7.18000000      -0.00000000      -0.00000000      -0.00000000      -0.00703639
Cu       5.38500000      12.56500000       7.18000000       0.00000000      -0.00000000      -0.00000000      -0.00703639
Cu       7.18000000      14.36000000       7.18000000      -0.00000000       0.00000000      -0.00000000      -0.00703639
Cu       1.79500000       7.18000000       8.97500000      -0.00000000      -0.00000000       0.00000000      -0.00703639
Cu       3.59000000       8.97500000       8.97500000      -0.00000000       0.00000000       0.00000000      -0.00703639
Cu       5.38500000      10.77000000       8.97500000       0.00000000      -0.00000000       0.00000000      -0.00703639
Cu       7.18000000      12.56500000       8.97500000      -0.00000000      -0.00000000       0.00000000      -0.00703639
Cu       8.97500000      14.36000000       8.97500000      -0.00000000       0.00000000      -0.00000000      -0.00703639
Cu       3.59000000       7.18000000      10.77000000      -0.00000000      -0.00000000       0.00000000      -0.00703639
Cu       5.38500000       8.97500000      10.77000000      -0.00000000      -0.00000000       0.00000000      -0.00703639
Cu       7.18000000      10.77000000      10.77000000       0.00000000       0.00000000       0.00000000      -0.00703639
Cu       8.97500000      12.56500000      10.77000000      -0.00000000       0.00000000       0.00000000      -0.00703639
Cu      10.77000000      14.36000000      10.77000000       0.00000000       0.00000000       0.00000000      -0.00703639
Cu       5.38500000       7.18000000      12.56500000      -0.00000000      -0.00000000       0.00000000      -0.00703639
Cu       7.18000000       8.97500000      12.56500000      -0.00000000      -0.00000000       0.00000000      -0.00703639
Cu       8.97500000      10.77000000      12.56500000       0.00000000      -0.00000000       0.00000000      -0.00703639
Cu      10.77000000      12.56500000      12.56500000      -0.00000000      -0.00000000       0.00000000      -0.00703639
Cu      12.56500000      14.36000000      12.56500000      -0.00000000       0.00000000      -0.00000000      -0.00703639
Cu       7.18000000       7.18000000      14.36000000      -0.00000000      -0.00000000       0.00000000      -0.00703639
Cu       8.97500000       8.97500000      14.36000000      -0.00000000      -0.00000000       0.00000000      -0.00703639
Cu      10.77000000      10.77000000      14.36000000       0.00000000      -0.00000000       0.00000000      -0.00703639
Cu      12.56500000      12.56500000      14.36000000      -0.00000000      -0.00000000       0.00000000      -0.00703639
Cu      14.36000000      14.36000000      14.36000000       0.00000000       0.00000000       0.00000000      -0.00703639
