124
Lattice="0.0 8.975 8.975 8.975 0.0 8.975 8.975 8.975 0.0" Properties=species:S:1:pos:R:3:forces:R:3:energies:R:1 energy=0.3525184992251713 free_energy=0.3525184992251713 pbc="T T T"
Cu       1.78299028       1.78299028       0.00000000       0.00013745       0.00013745      -0.00000000       0.08151524
Cu       3.58709679       3.58709679       0.00000000       0.00100094       0.00100094      -0.00000000      -0.00754383
Cu       5.38790321       5.38790321       0.00000000      -0.00100094      -0.00100094      -0.00000000      -0.00754383
Cu       7.19200972       7.19200972      -0.00000000      -0.00013745      -0.00013745       0.00000000       0.08151524
Cu       1.78299028      -0.00000000       1.78299028       0.00013745      -0.00000000       0.00013745       0.08151524
Cu       3.58749448       1.79365925       1.79365925       0.00094798      -0.00390528      -0.00390528      -0.00514940
Cu       5.38485432       3.59014568       1.79482187      -0.00238711       0.00238711      -0.00184079      -0.00717957
Cu       7.18134075       5.38750552       1.79365925       0.00390528      -0.00094798      -0.00390528      -0.00514940
Cu       8.97500000       7.19200972       1.78299028      -0.00000000      -0.00013745       0.00013745       0.08151524
Cu       3.58709679      -0.00000000       3.58709679       0.00100094       0.00000000       0.00100094      -0.00754383
Cu       5.38485432       1.79482187       3.59014568      -0.00238711      -0.00184079       0.00238711      -0.00717957
Cu       7.18017813       3.59014568       3.59014568       0.00184079       0.00238711       0.00238711      -0.00717957
Cu       8.97500000       5.38790321       3.58709679       0.00000000      -0.00100094       0.00100094      -0.00754383
Cu      10.76865925       7.18134075       3.58749448      -0.00390528       0.00390528       0.00094798      -0.00514940
Cu       5.38790321       0.00000000       5.38790321      -0.00100094      -0.00000000      -0.00100094      -0.00754383
Cu       7.18134075       1.79365925       5.38750552       0.00390528      -0.00390528      -0.00094798      -0.00514940
Cu       8.97500000       3.58709679       5.38790321      -0.00000000       0.00100094      -0.00100094      -0.00754383
Cu      10.76982187       5.38485432       5.38485432      -0.00184079      -0.00238711      -0.00238711      -0.00717957
Cu      12.56514568       7.18017813       5.38485432       0.00238711       0.00184079      -0.00238711      -0.00717957
Cu       7.19200972      -0.00000000       7.19200972      -0.00013745       0.00000000      -0.00013745       0.08151524
Cu       8.97500000       1.78299028       7.19200972      -0.00000000       0.00013745      -0.00013745       0.08151524
Cu      10.76865925       3.58749448       7.18134075      -0.00390528       0.00094798       0.00390528      -0.00514940
Cu      12.56514568       5.38485432       7.18017813       0.00238711      -0.00238711       0.00184079      -0.00717957
Cu      14.36250552       7.18134075       7.18134075      -0.00094798       0.00390528       0.00390528      -0.00514940
Cu       0.00000000       1.78299028       1.78299028      -0.00000000       0.00013745       0.00013745       0.08151524
Cu       1.79365925       3.58749448       1.79365925      -0.00390528       0.00094798      -0.00390528      -0.00514940
Cu       3.59014568       5.38485432       1.79482187       0.00238711      -0.00238711      -0.00184079      -0.00717957
Cu       5.38750552       7.18134075       1.79365925      -0.00094798       0.00390528      -0.00390528      -0.00514940
Cu       7.19200972       8.97500000       1.78299028      -0.00013745      -0.00000000       0.00013745       0.08151524
Cu       1.79365925       1.79365925       3.58749448      -0.00390528      -0.00390528       0.00094798      -0.00514940
Cu       3.58989552       3.58989552       3.58989552      -0.00445909      -0.00445909      -0.00445909      -0.00699882
Cu       5.38510448       5.38510448       3.58989552       0.00445909       0.00445909      -0.00445909      -0.00699882
Cu       7.18134075       7.18134075       3.58749448       0.00390528       0.00390528       0.00094798      -0.00514940
Cu       8.97500000       8.97500000       3.59902875      -0.00000000      -0.00000000      -0.00015487       0.01009882
Cu       3.59014568       1.79482187       5.38485432       0.00238711      -0.00184079      -0.00238711      -0.00717957
Cu       5.38510448       3.58989552       5.38510448       0.00445909      -0.00445909       0.00445909      -0.00699882
Cu       7.18017813       5.38485432       5.38485432       0.00184079      -0.00238711      -0.00238711      -0.00717957
Cu       8.97500000       7.17898002       5.38608092       0.00000000       0.00248002      -0.00269189      -0.00606703
Cu      10.77101998       8.97500000       5.38608092      -0.00248002       0.00000000      -0.00269189      -0.00606703
Cu       5.38750552       1.79365925       7.18134075      -0.00094798      -0.00390528       0.00390528      -0.00514940
Cu       7.18134075       3.58749448       7.18134075       0.00390528       0.00094798       0.00390528      -0.00514940
Cu       8.97500000       5.38608092       7.17898002      -0.00000000      -0.00269189       0.00248002      -0.00606703
Cu      10.77000292       7.17999708       7.17999708       0.00031048      -0.00031048      -0.00031048      -0.00659557
Cu      12.56391908       8.97500000       7.17898002       0.00269189       0.00000000       0.00248002      -0.00606703
Cu       7.19200972       1.78299028       8.97500000      -0.00013745       0.00013745       0.00000000       0.08151524
Cu       8.97500000       3.59902875       8.97500000       0.00000000      -0.00015487       0.00000000       0.01009882
Cu      10.77101998       5.38608092       8.97500000      -0.00248002      -0.00269189      -0.00000000      -0.00606703
Cu      12.56391908       7.17898002       8.97500000       0.00269189       0.00248002       0.00000000      -0.00606703
Cu      14.35097125       8.97500000       8.97500000       0.00015487      -0.00000000      -0.00000000       0.01009882
Cu      -0.00000000       3.58709679       3.58709679       0.00000000       0.00100094       0.00100094      -0.00754383
Cu       1.79482187       5.38485432       3.59014568      -0.00184079      -0.00238711       0.00238711      -0.00717957
Cu       3.59014568       7.18017813       3.59014568       0.00238711       0.00184079       0.00238711      -0.00717957
Cu       5.38790321       8.97500000       3.58709679      -0.00100094       0.00000000       0.00100094      -0.00754383
Cu       7.18134075      10.76865925       3.58749448       0.00390528      -0.00390528       0.00094798      -0.00514940
Cu       1.79482187       3.59014568       5.38485432      -0.00184079       0.00238711      -0.00238711      -0.00717957
Cu       3.58989552       5.38510448       5.38510448      -0.00445909       0.00445909       0.00445909      -0.00699882
Cu       5.38485432       7.18017813       5.38485432      -0.00238711       0.00184079      -0.00238711      -0.00717957
Cu       7.17898002       8.97500000       5.38608092       0.00248002       0.00000000      -0.00269189      -0.00606703
Cu       8.97500000      10.77101998       5.38608092       0.00000000      -0.00248002      -0.00269189      -0.00606703
Cu       3.59014568       3.59014568       7.18017813       0.00238711       0.00238711       0.00184079      -0.00717957
Cu       5.38485432       5.38485432       7.18017813      -0.00238711      -0.00238711       0.00184079      -0.00717957
Cu       7.17999708       7.17999708       7.17999708      -0.00031048      -0.00031048      -0.00031048      -0.00659557
Cu       8.97500000       8.97500000       7.17987153       0.00000000       0.00000000       0.00044841      -0.00757866
Cu      10.77000292      10.77000292       7.17999708       0.00031048       0.00031048      -0.00031048      -0.00659557
Cu       5.38790321       3.58709679       8.97500000      -0.00100094       0.00100094       0.00000000      -0.00754383
Cu       7.17898002       5.38608092       8.97500000       0.00248002      -0.00269189      -0.00000000      -0.00606703
Cu       8.97500000       7.17987153       8.97500000       0.00000000       0.00044841       0.00000000      -0.00757866
Cu      10.77012847       8.97500000       8.97500000      -0.00044841       0.00000000       0.00000000      -0.00757866
Cu      12.56391908      10.77101998       8.97500000       0.00269189      -0.00248002       0.00000000      -0.00606703
Cu       7.18134075       3.58749448      10.76865925       0.00390528       0.00094798      -0.00390528      -0.00514940
Cu       8.97500000       5.38608092      10.77101998       0.00000000      -0.00269189      -0.00248002      -0.00606703
Cu      10.77000292       7.17999708      10.77000292       0.00031048      -0.00031048       0.00031048      -0.00659557
Cu      12.56391908       8.97500000      10.77101998       0.00269189       0.00000000      -0.00248002      -0.00606703
Cu      14.36250552      10.76865925      10.76865925      -0.00094798      -0.00390528      -0.00390528      -0.00514940
Cu       0.00000000       5.38790321       5.38790321       0.00000000      -0.00100094      -0.00100094      -0.00754383
Cu       1.79365925       7.18134075       5.38750552      -0.00390528       0.00390528      -0.00094798      -0.00514940
Cu       3.58709679       8.97500000       5.38790321       0.00100094       0.00000000      -0.00100094      -0.00754383
Cu       5.38485432      10.76982187       5.38485432      -0.00238711      -0.00184079      -0.00238711      -0.00717957
Cu       7.18017813      12.56514568       5.38485432       0.00184079       0.00238711      -0.00238711      -0.00717957
Cu       1.79365925       5.38750552       7.18134075      -0.00390528      -0.00094798       0.00390528      -0.00514940
Cu       3.58749448       7.18134075       7.18134075       0.00094798       0.00390528       0.00390528      -0.00514940
Cu       5.38608092       8.97500000       7.17898002      -0.00269189      -0.00000000       0.00248002      -0.00606703
Cu       7.17999708      10.77000292       7.17999708      -0.00031048       0.00031048      -0.00031048      -0.00659557
Cu       8.97500000      12.56391908       7.17898002      -0.00000000       0.00269189       0.00248002      -0.00606703
Cu       3.58709679       5.38790321       8.97500000       0.00100094      -0.00100094       0.00000000      -0.00754383
Cu       5.38608092       7.17898002       8.97500000      -0.00269189       0.00248002       0.00000000      -0.00606703
Cu       7.17987153       8.97500000       8.97500000       0.00044841       0.00000000       0.00000000      -0.00757866
Cu       8.97500000      10.77012847       8.97500000       0.00000000      -0.00044841      -0.00000000      -0.00757866
Cu      10.77101998      12.56391908       8.97500000      -0.00248002       0.00269189       0.00000000      -0.00606703
Cu       5.38485432       5.38485432      10.76982187      -0.00238711      -0.00238711      -0.00184079      -0.00717957
Cu       7.17999708       7.17999708      10.77000292      -0.00031048      -0.00031048       0.00031048      -0.00659557
Cu       8.97500000       8.97500000      10.77012847       0.00000000      -0.00000000      -0.00044841      -0.00757866
Cu      10.77000292      10.77000292      10.77000292       0.00031048       0.00031048       0.00031048      -0.00659557
Cu      12.56514568      12.56514568      10.76982187       0.00238711       0.00238711      -0.00184079      -0.00717957
Cu       7.18017813       5.38485432      12.56514568       0.00184079      -0.00238711       0.00238711      -0.00717957
Cu       8.97500000       7.17898002      12.56391908       0.00000000       0.00248002       0.00269189      -0.00606703
Cu      10.77101998       8.97500000      12.56391908      -0.00248002       0.00000000       0.00269189      -0.00606703
Cu      12.56514568      10.76982187      12.56514568       0.00238711      -0.00184079       0.00238711      -0.00717957
Cu      14.36010448      12.56489552      12.56489552       0.00445909      -0.00445909      -0.00445909      -0.00699882
Cu      -0.00000000       7.19200972       7.19200972       0.00000000      -0.00013745      -0.00013745       0.08151524
Cu       1.78299028       8.97500000       7.19200972       0.00013745      -0.00000000      -0.00013745       0.08151524
Cu       3.58749448      10.76865925       7.18134075       0.00094798      -0.00390528       0.00390528      -0.00514940
Cu       5.38485432      12.56514568       7.18017813      -0.00238711       0.00238711       0.00184079      -0.00717957
Cu       7.18134075      14.36250552       7.18134075       0.00390528      -0.00094798       0.00390528      -0.00514940
Cu       1.78299028       7.19200972       8.97500000       0.00013745      -0.00013745      -0.00000000       0.08151524
Cu       3.59902875       8.97500000       8.97500000      -0.00015487      -0.00000000       0.00000000       0.01009882
Cu       5.38608092      10.77101998       8.97500000      -0.00269189      -0.00248002       0.00000000      -0.00606703
Cu       7.17898002      12.56391908       8.97500000       0.00248002       0.00269189       0.00000000      -0.00606703
Cu       8.97500000      14.35097125       8.97500000      -0.00000000       0.00015487      -0.00000000       0.01009882
Cu       3.58749448       7.18134075      10.76865925       0.00094798       0.00390528      -0.00390528      -0.00514940
Cu       5.38608092       8.97500000      10.77101998      -0.00269189      -0.00000000      -0.00248002      -0.00606703
Cu       7.17999708      10.77000292      10.77000292      -0.00031048       0.00031048       0.00031048      -0.00659557
Cu       8.97500000      12.56391908      10.77101998      -0.00000000       0.00269189      -0.00248002      -0.00606703
Cu      10.76865925      14.36250552      10.76865925      -0.00390528      -0.00094798      -0.00390528      -0.00514940
Cu       5.38485432       7.18017813      12.56514568      -0.00238711       0.00184079       0.00238711      -0.00717957
Cu       7.17898002       8.97500000      12.56391908       0.00248002       0.00000000       0.00269189      -0.00606703
Cu       8.97500000      10.77101998      12.56391908       0.00000000      -0.00248002       0.00269189      -0.00606703
Cu      10.76982187      12.56514568      12.56514568      -0.00184079       0.00238711       0.00238711      -0.00717957
Cu      12.56489552      14.36010448      12.56489552      -0.00445909       0.00445909      -0.00445909      -0.00699882
Cu       7.18134075       7.18134075      14.36250552       0.00390528       0.00390528      -0.00094798      -0.00514940
Cu       8.97500000       8.97500000      14.35097125       0.00000000       0.00000000       0.00015487       0.01009882
Cu      10.76865925      10.76865925      14.36250552      -0.00390528      -0.00390528      -0.00094798      -0.00514940
Cu      12.56489552      12.56489552      14.36010448      -0.00445909      -0.00445909       0.00445909      -0.00699882
Cu      14.36010448      14.36010448      14.36010448       0.00445909       0.00445909       0.00445909      -0.00699882
