1
Lattice="0.0 2.86125 2.86125 2.86125 0.0 2.86125 2.86125 2.86125 0.0" Properties=species:S:1:pos:R:3:forces:R:3:stresses:R:6:energies:R:1 energy=-0.06009165705217707 stress="0.0009758698217740892 1.3936847276307408e-20 2.654811294380512e-21 1.3936847276307408e-20 0.0009758698217740892 -2.7533147049398793e-20 2.654811294380512e-21 -2.7533147049398793e-20 0.0009758698217740893" free_energy=-0.06009165705217707 pbc="T T T"
Ar       0.00000000       0.00000000       0.00000000       0.00000000      -0.00000000      -0.00000000       0.00097587       0.00097587       0.00097587      -0.00000000       0.00000000       0.00000000      -0.06009166
