1
Lattice="0.0 1.805 1.805 1.805 0.0 1.805 1.805 1.805 0.0" Properties=species:S:1:pos:R:3:forces:R:3:stresses:R:6:energies:R:1 energy=-3.2218152144714907 stress="0.0902539412048134 -9.402618825951752e-19 5.899682400597177e-19 -9.402618825951752e-19 0.09025394120481345 -2.9498412002985884e-18 5.899682400597177e-19 -2.9498412002985884e-18 0.09025394120481339" free_energy=-3.2218152144714907 pbc="T T T"
Cu       0.00000000       0.00000000       0.00000000       0.00000000      -0.00000000       0.00000000       0.09025394       0.09025394       0.09025394      -0.00000000       0.00000000      -0.00000000      -3.22181521
