1
Lattice="0.0 1.805 1.805 1.805 0.0 1.805 1.805 1.805 0.0" Properties=species:S:1:pos:R:3:forces:R:3:stresses:R:6:energies:R:1 energy=-3.2461554753384325 stress="0.013103292574978824 -7.595841090768865e-18 -8.849523600895766e-19 -7.595841090768865e-18 0.013103292574978756 0.0 -8.849523600895766e-19 0.0 0.013103292574978845" free_energy=-3.2461554753384325 pbc="T T T"
Cu       0.00000000       0.00000000       0.00000000       0.00000000       0.00000000       0.00000000       0.01310329       0.01310329       0.01310329       0.00000000      -0.00000000      -0.00000000      -3.24615548
