1
Lattice="0.0 1.85 1.85 1.85 0.0 1.85 1.85 1.85 0.0" Properties=species:S:1:pos:R:3:forces:R:3:stresses:R:6:energies:R:1 energy=-3.1896092059589565 stress="0.12097953608108741 4.623372144924662e-19 1.2328992386465765e-18 4.623372144924662e-19 0.12097953608108736 -5.479552171762562e-19 1.2328992386465765e-18 -5.479552171762562e-19 0.12097953608108734" free_energy=-3.1896092059589565 pbc="T T T"
Cu       0.00000000       0.00000000       0.00000000      -0.00000000      -0.00000000       0.00000000       0.12097954       0.12097954       0.12097954      -0.00000000       0.00000000       0.00000000      -3.18960921
