1
Lattice="0.0 2.63 2.63 2.63 0.0 2.63 2.63 2.63 0.0" Properties=species:S:1:pos:R:3:forces:R:3:stresses:R:6:energies:R:1 energy=-0.05881063236758873 stress="-0.002510573948622031 0.0 -1.6632001223390093e-19 0.0 -0.0025105739486220306 -1.3968646044280592e-20 -1.6632001223390093e-19 -1.3968646044280592e-20 -0.002510573948622031" free_energy=-0.05881063236758873 pbc="T T T"
Ar       0.00000000       0.00000000       0.00000000      -0.00000000       0.00000000      -0.00000000      -0.00251057      -0.00251057      -0.00251057      -0.00000000      -0.00000000       0.00000000      -0.05881063
