1
Lattice="9.966535803023784e-18 2.7347856860117856 2.7347856860117856 2.7347856860117856 5.759130512806888e-18 2.7347856860117856 2.7347856860117856 2.7347856860117856 1.780047291198322e-18" Properties=species:S:1:pos:R:3:forces:R:3:stresses:R:6:energies:R:1 energy=-0.06367901157366798 stress="-3.3184072886917204e-05 -7.371407352482312e-21 6.625984137062753e-21 -7.371407352482312e-21 -3.318407288691677e-05 -7.951180964475303e-21 6.625984137062753e-21 -7.951180964475303e-21 -3.3184072886917245e-05" free_energy=-0.06367901157366798 pbc="T T T"
Ar       0.00000000       0.00000000       0.00000000      -0.00000000       0.00000000       0.00000000      -0.00003318      -0.00003318      -0.00003318      -0.00000000       0.00000000      -0.00000000      -0.06367901
