1
Lattice="0.0 1.8038868592660182 1.7949571717064252 1.7859377362882471 0.0 1.7949571717064252 1.7859377362882471 1.8038868592660182 0.0" Properties=species:S:1:pos:R:3:forces:R:3:energies:R:1 B=0.8392121970539517 v0=11.56537436031024 scale=0.9971734987650738 energy=-0.006933362658422482 free_energy=-0.006933362658422482 strain=mono_vol_cons delta=-0.005 pbc="T T T"
Cu       0.00000000       0.00000000       0.00000000       0.00000000       0.00000000       0.00000000      -0.00693336
