1
Lattice="0.0 1.7769631747993615 1.7950918069578283 1.812861420754904 0.0 1.7950918069578283 1.812861420754904 1.7769631747993615 0.0" Properties=species:S:1:pos:R:3:forces:R:3:energies:R:1 B=0.8392121970539517 v0=11.56537436031024 scale=0.9971734987650738 energy=-0.006624318604734114 free_energy=-0.006624318604734114 strain=mono_vol_cons delta=0.01 pbc="T T T"
Cu       0.00000000       0.00000000       0.00000000       0.00000000       0.00000000       0.00000000      -0.00662432
