1
Lattice="0.004487280744442832 1.7949122977771328 1.7949235160491082 1.7949122977771328 0.004487280744442832 1.7949235160491082 1.7993995785215757 1.7993995785215757 0.0" Properties=species:S:1:pos:R:3:forces:R:3:energies:R:1 B=0.8392121970539517 v0=11.56537436031024 scale=0.9971734987650738 energy=-0.006955361865980336 free_energy=-0.006955361865980336 strain=mono_vol_cons delta=0.005 pbc="T T T"
Cu       0.00000000       0.00000000       0.00000000       0.00000000       0.00000000       0.00000000      -0.00695536
