1
Lattice="0.0 1.795 1.795 1.795 0.0 1.795 1.795 1.795 0.0" Properties=species:S:1:pos:R:3:forces:R:3:energies:R:1 energy=-0.007036388955199868 free_energy=-0.007036388955199868 pbc="T T T"
Cu       0.00000000       0.00000000       0.00000000       0.00000000       0.00000000       0.00000000      -0.00703639
