27
Lattice="0.0 6.0 6.0 6.0 0.0 6.0 6.0 6.0 0.0" Properties=species:S:1:pos:R:3:forces:R:3:stresses:R:6:energies:R:1 energy=53.95015245383531 stress="-0.6083653763401569 -9.25202465977898e-10 -2.3718696515836885e-09 -9.25202465977898e-10 -0.6083653789682448 -6.042780646606676e-09 -2.3718696515836885e-09 -6.042780646606676e-09 -0.6083653795161443" free_energy=53.95015245383531 pbc="T T T"
Ar      -0.00033644      -0.00280551      -0.00439775       0.00082769       0.00224085      -0.00203863      -0.02253106      -0.02253292      -0.02253057      -0.00000038       0.00000251      -0.00000130       1.99809969
Ar       1.99968486       1.99726744      -0.00450062      -0.00060679       0.00017000       0.00027061      -0.02253169      -0.02253110      -0.02253262      -0.00000085      -0.00000073       0.00000297       1.99812876
Ar       3.99972439       3.99735484      -0.00459834      -0.00120751      -0.00156953       0.00221359      -0.02253311      -0.02253274      -0.02253056       0.00000195      -0.00000040      -0.00000034       1.99816244
Ar       1.99966711      -0.00266890       1.99568373       0.00023416      -0.00100255      -0.00385633      -0.02253290      -0.02253114      -0.02253372      -0.00000105      -0.00000080       0.00000068       1.99820772
Ar       3.99975431       1.99733410       1.99536414      -0.00126705      -0.00030827       0.00307644      -0.02253183      -0.02253269      -0.02253277      -0.00000186       0.00000020      -0.00000068       1.99819184
Ar       5.99974328       3.99725737       1.99548540      -0.00008760       0.00114860       0.00044488      -0.02253130      -0.02253342      -0.02253342       0.00000179       0.00000128      -0.00000164       1.99822080
Ar       3.99963754      -0.00262678       3.99547510       0.00211714      -0.00163145       0.00009468      -0.02253242      -0.02253102      -0.02253286       0.00000021      -0.00000036       0.00000051       1.99815868
Ar       5.99970632       1.99728753       3.99549570       0.00024980      -0.00071837       0.00004708      -0.02253347      -0.02253096      -0.02253093      -0.00000104       0.00000188      -0.00000049       1.99812727
Ar       7.99968055       3.99725048       3.99554574       0.00084854       0.00054431      -0.00083412      -0.02253183      -0.02253110      -0.02253160       0.00000275      -0.00000123      -0.00000039       1.99809943
Ar      -0.00032201       1.99727615       1.99546374      -0.00020678       0.00009350       0.00074422      -0.02253383      -0.02253275      -0.02253155      -0.00000115       0.00000025      -0.00000050       1.99822078
Ar       1.99967119       3.99722328       1.99552641       0.00145462       0.00090383      -0.00075380      -0.02253188      -0.02253219      -0.02253154       0.00000070      -0.00000186       0.00000088       1.99813547
Ar       3.99967470       5.99733659       1.99554840       0.00059061      -0.00131327      -0.00087737      -0.02253231      -0.02253090      -0.02253329      -0.00000064      -0.00000111       0.00000035       1.99816530
Ar       1.99967220       1.99726625       3.99550727       0.00074277       0.00176853       0.00061320      -0.02253048      -0.02253413      -0.02253157      -0.00000158      -0.00000173       0.00000240       1.99815457
Ar       3.99974892       3.99732978       3.99539060      -0.00101191      -0.00064366       0.00191501      -0.02253181      -0.02253143      -0.02253186       0.00000323       0.00000062       0.00000038       1.99811793
Ar       5.99968469       5.99727644       3.99559040       0.00032194       0.00044959      -0.00053748      -0.02253292      -0.02253275      -0.02253044       0.00000085       0.00000214      -0.00000095       1.99815197
Ar       3.99978353       1.99736968       5.99538359      -0.00131992      -0.00136731       0.00216474      -0.02253244      -0.02253218      -0.02253247      -0.00000216      -0.00000012      -0.00000070       1.99818536
Ar       5.99972118       3.99734352       5.99551542      -0.00040172      -0.00002370      -0.00028981      -0.02253149      -0.02253202      -0.02253369       0.00000103       0.00000128      -0.00000168       1.99818911
Ar       7.99978873       5.99731276       5.99561475      -0.00164550      -0.00045101      -0.00221397      -0.02253192      -0.02253202      -0.02253247      -0.00000124      -0.00000047       0.00000109       1.99816257
Ar      -0.00032301       3.99724814       3.99550558      -0.00036701       0.00017532       0.00018889      -0.02253174      -0.02253179      -0.02253284       0.00000111       0.00000290      -0.00000195       1.99816121
Ar       1.99963562       5.99722772       3.99558196       0.00083167       0.00120777      -0.00163958      -0.02253225      -0.02253188      -0.02253299       0.00000052      -0.00000159      -0.00000005       1.99818683
Ar       3.99970104       7.99725144       3.99546967      -0.00055883       0.00082973       0.00087888      -0.02253048      -0.02253234      -0.02253182      -0.00000149       0.00000068       0.00000054       1.99810286
Ar       1.99978089       3.99732421       5.99549917      -0.00149875      -0.00103139       0.00019041      -0.02253262      -0.02253162      -0.02253070       0.00000315      -0.00000127       0.00000017       1.99811297
Ar       3.99961967       5.99735375       5.99555158       0.00178193      -0.00167953      -0.00063278      -0.02253181      -0.02253409      -0.02253121       0.00000031      -0.00000046      -0.00000053       1.99818626
Ar       5.99971899       7.99728374       5.99554182       0.00034356      -0.00023072      -0.00122119      -0.02253236      -0.02252983      -0.02253423      -0.00000179       0.00000168       0.00000030       1.99816244
Ar       3.99968187       3.99728886       7.99543995      -0.00031447      -0.00004975       0.00231876      -0.02253168      -0.02253068      -0.02253123       0.00000045      -0.00000131      -0.00000045       1.99806782
Ar       5.99970496       5.99722100       7.99558074      -0.00052625       0.00132134      -0.00145426      -0.02253173      -0.02253301      -0.02253177      -0.00000040       0.00000013      -0.00000029       1.99816589
Ar       7.99969833       7.99724358       7.99546732       0.00067566       0.00116714       0.00118795      -0.02253201      -0.02253269      -0.02253064      -0.00000241      -0.00000210       0.00000165       1.99812647
