1
Lattice="0.0 1.8167385017039785 1.807745195325384 1.7986615016870235 0.0 1.807745195325384 1.7986615016870235 1.8167385017039785 0.0" Properties=species:S:1:pos:R:3:forces:R:3:stresses:R:6:energies:R:1 B=2.30263210763766 v0=11.814329278309136 scale=1.0042777787197228 energy=-3.246188904225578 stress="-0.00710435179332495 -5.322665766529166e-19 -5.2859577267599995e-18 -5.322665766529166e-19 0.006906292992225642 2.9366431815333327e-19 -5.2859577267599995e-18 2.9366431815333327e-19 -0.0004798088818943945" free_energy=-3.246188904225578 strain=mono_vol_cons delta=-0.005 pbc="T T T"
Cu       0.00000000       0.00000000       0.00000000      -0.00000000      -0.00000000       0.00000000      -0.00710435       0.00690629      -0.00047981       0.00000000      -0.00000000      -0.00000000      -3.24618890
