1
Lattice="0.0067788750063581295 1.8077000016955012 1.8077254228342599 1.8077000016955012 0.0067788750063581295 1.8077254228342599 1.8144788767018594 1.8144788767018594 0.0" Properties=species:S:1:pos:R:3:forces:R:3:stresses:R:6:energies:R:1 B=2.30263210763766 v0=11.814329278309136 scale=1.0042777787197228 energy=-3.245993239772343 stress="-0.0005002034059354919 0.013759956618650478 9.397258180906657e-18 0.013759956618650478 -0.0005002034059354649 3.0100592610716633e-18 9.397258180906657e-18 3.0100592610716633e-18 1.5957576951298917e-05" free_energy=-3.245993239772343 strain=mono_vol_cons delta=0.0075 pbc="T T T"
Cu       0.00000000       0.00000000       0.00000000      -0.00000000       0.00000000       0.00000000      -0.00050020      -0.00050020       0.00001596       0.00000000       0.00000000       0.01375996      -3.24599324
