1
Lattice="2.12132 0.0 0.0 1.0606600000000002 1.8371170095560052 0.0 1.0606600000000002 0.6123723365186685 1.7320505270536035" Properties=species:S:1:pos:R:3:spacegroup_kinds:I:1:forces:R:3:stresses:R:6:energies:R:1 spacegroup="P 1" unit_cell=conventional occupancy="_JSON {\"0\": {\"Ar\": 1.0}}" energy=85.81161793643301 stress="-52.320644031868945 1.1690756927879748e-14 7.327475522701854e-15 1.1690756927879748e-14 -52.32064403186895 4.758027561283044e-15 7.327475522701854e-15 4.758027561283044e-15 -52.32064403186896" free_energy=85.81161793643301 pbc="T T T"
Ar       0.00000000       0.00000000       0.00000000        0      -0.00000000      -0.00000000      -0.00000000     -52.32064403     -52.32064403     -52.32064403       0.00000000       0.00000000       0.00000000      85.81161794
