1
Lattice="1.76777 0.0 0.0 0.8838850000000003 1.530933728048017 0.0 0.8838850000000003 0.5103112426826725 1.443378160866606" Properties=species:S:1:pos:R:3:spacegroup_kinds:I:1:forces:R:3:stresses:R:6:energies:R:1 spacegroup="P 1" unit_cell=conventional occupancy="_JSON {\"0\": {\"Ar\": 1.0}}" energy=794.5521045480298 stress="-821.2305776894317 1.5174627468315711e-13 2.0162700497885625e-13 1.5174627468315711e-13 -821.230577689432 5.681470336274785e-14 2.0162700497885625e-13 5.681470336274785e-14 -821.2305776894319" free_energy=794.5521045480298 pbc="T T T"
Ar       0.00000000       0.00000000       0.00000000        0      -0.00000000       0.00000000       0.00000000    -821.23057769    -821.23057769    -821.23057769       0.00000000       0.00000000       0.00000000     794.55210455
