1
Lattice="0.0 2.793125 2.793125 2.793125 0.0 2.793125 2.793125 2.793125 0.0" Properties=species:S:1:pos:R:3:forces:R:3:stresses:R:6:energies:R:1 energy=-0.06280737756859853 stress="0.0006199639164565369 -1.506983292711994e-20 4.955010065276568e-21 -1.506983292711994e-20 0.0006199639164565369 4.103546990505632e-23 4.955010065276568e-21 4.103546990505632e-23 0.000619963916456537" free_energy=-0.06280737756859853 pbc="T T T"
Ar       0.00000000       0.00000000       0.00000000       0.00000000      -0.00000000       0.00000000       0.00061996       0.00061996       0.00061996       0.00000000       0.00000000      -0.00000000      -0.06280738
